# vtk DataFile Version 2.0
Simplicial Mesh Example
ASCII
DATASET UNSTRUCTURED_GRID
POINTS 1302 double
0.000000e+00 1.000000e+00 5.000000e-01
-5.551115e-17 1.000000e+00 3.000000e-01
3.302130e-02 6.666667e-01 5.000000e-01
3.302130e-02 6.666667e-01 3.000000e-01
-2.000000e-01 1.000000e+00 5.000000e-01
-2.000000e-01 1.000000e+00 3.000000e-01
-1.691801e-01 6.666667e-01 5.000000e-01
-1.691801e-01 6.666667e-01 3.000000e-01
-4.000000e-01 1.000000e+00 5.000000e-01
-4.000000e-01 1.000000e+00 3.000000e-01
-3.713816e-01 6.666667e-01 5.000000e-01
-3.713816e-01 6.666667e-01 3.000000e-01
-6.000000e-01 1.000000e+00 5.000000e-01
-6.000000e-01 1.000000e+00 3.000000e-01
-5.735829e-01 6.666667e-01 5.000000e-01
-5.735829e-01 6.666667e-01 3.000000e-01
-8.000000e-01 1.000000e+00 5.000000e-01
-8.000000e-01 1.000000e+00 3.000000e-01
-7.757844e-01 6.666667e-01 5.000000e-01
-7.757844e-01 6.666667e-01 3.000000e-01
-1.000000e+00 1.000000e+00 5.000000e-01
-1.000000e+00 1.000000e+00 3.000000e-01
-9.779858e-01 6.666667e-01 5.000000e-01
-9.779858e-01 6.666667e-01 3.000000e-01
-1.200000e+00 1.000000e+00 5.000000e-01
-1.200000e+00 1.000000e+00 3.000000e-01
-1.180187e+00 6.666667e-01 5.000000e-01
-1.180187e+00 6.666667e-01 3.000000e-01
-2.000000e-01 1.000000e+00 1.000000e-01
-1.691801e-01 6.666667e-01 1.000000e-01
-4.000000e-01 1.000000e+00 1.000000e-01
-3.713816e-01 6.666667e-01 1.000000e-01
-6.000000e-01 1.000000e+00 1.000000e-01
-5.735829e-01 6.666667e-01 1.000000e-01
-8.000000e-01 1.000000e+00 1.000000e-01
-7.757844e-01 6.666667e-01 1.000000e-01
-1.000000e+00 1.000000e+00 1.000000e-01
-9.779858e-01 6.666667e-01 1.000000e-01
-1.200000e+00 1.000000e+00 1.000000e-01
-1.180187e+00 6.666667e-01 1.000000e-01
-2.000000e-01 1.000000e+00 -1.000000e-01
-1.691801e-01 6.666667e-01 -1.000000e-01
-4.000000e-01 1.000000e+00 -1.000000e-01
-3.713816e-01 6.666667e-01 -1.000000e-01
-6.000000e-01 1.000000e+00 -1.000000e-01
-5.735829e-01 6.666667e-01 -1.000000e-01
-8.000000e-01 1.000000e+00 -1.000000e-01
-7.757844e-01 6.666667e-01 -1.000000e-01
-1.000000e+00 1.000000e+00 -1.000000e-01
-9.779858e-01 6.666667e-01 -1.000000e-01
-1.200000e+00 1.000000e+00 -1.000000e-01
-1.180187e+00 6.666667e-01 -1.000000e-01
-1.400000e+00 1.000000e+00 -1.000000e-01
-1.382389e+00 6.666667e-01 -1.000000e-01
-2.000000e-01 1.000000e+00 -3.000000e-01
-1.691801e-01 6.666667e-01 -3.000000e-01
-4.000000e-01 1.000000e+00 -3.000000e-01
-3.713816e-01 6.666667e-01 -3.000000e-01
-6.000000e-01 1.000000e+00 -3.000000e-01
-5.735829e-01 6.666667e-01 -3.000000e-01
-8.000000e-01 1.000000e+00 -3.000000e-01
-7.757844e-01 6.666667e-01 -3.000000e-01
-1.000000e+00 1.000000e+00 -3.000000e-01
-9.779858e-01 6.666667e-01 -3.000000e-01
-1.200000e+00 1.000000e+00 -3.000000e-01
-1.180187e+00 6.666667e-01 -3.000000e-01
-1.400000e+00 1.000000e+00 -3.000000e-01
-1.382389e+00 6.666667e-01 -3.000000e-01
-2.000000e-01 1.000000e+00 -5.000000e-01
-1.691801e-01 6.666667e-01 -5.000000e-01
-4.000000e-01 1.000000e+00 -5.000000e-01
-3.713816e-01 6.666667e-01 -5.000000e-01
-6.000000e-01 1.000000e+00 -5.000000e-01
-5.735829e-01 6.666667e-01 -5.000000e-01
-8.000000e-01 1.000000e+00 -5.000000e-01
-7.757844e-01 6.666667e-01 -5.000000e-01
-1.000000e+00 1.000000e+00 -5.000000e-01
-9.779858e-01 6.666667e-01 -5.000000e-01
-1.200000e+00 1.000000e+00 -5.000000e-01
-1.180187e+00 6.666667e-01 -5.000000e-01
-1.400000e+00 1.000000e+00 -5.000000e-01
-1.382389e+00 6.666667e-01 -5.000000e-01
6.604260e-02 3.333333e-01 5.000000e-01
6.604260e-02 3.333333e-01 3.000000e-01
-1.383602e-01 3.333333e-01 5.000000e-01
-1.383602e-01 3.333333e-01 3.000000e-01
-3.427631e-01 3.333333e-01 5.000000e-01
-3.427631e-01 3.333333e-01 3.000000e-01
-5.471659e-01 3.333333e-01 5.000000e-01
-5.471659e-01 3.333333e-01 3.000000e-01
-7.515687e-01 3.333333e-01 5.000000e-01
-7.515687e-01 3.333333e-01 3.000000e-01
-9.559716e-01 3.333333e-01 5.000000e-01
-9.559716e-01 3.333333e-01 3.000000e-01
-1.160374e+00 3.333333e-01 5.000000e-01
-1.160374e+00 3.333333e-01 3.000000e-01
-1.383602e-01 3.333333e-01 1.000000e-01
-3.427631e-01 3.333333e-01 1.000000e-01
-5.471659e-01 3.333333e-01 1.000000e-01
-7.515687e-01 3.333333e-01 1.000000e-01
-9.559716e-01 3.333333e-01 1.000000e-01
-1.160374e+00 3.333333e-01 1.000000e-01
-1.383602e-01 3.333333e-01 -1.000000e-01
-3.427631e-01 3.333333e-01 -1.000000e-01
-5.471659e-01 3.333333e-01 -1.000000e-01
-7.515687e-01 3.333333e-01 -1.000000e-01
-9.559716e-01 3.333333e-01 -1.000000e-01
-1.160374e+00 3.333333e-01 -1.000000e-01
-1.364777e+00 3.333333e-01 -1.000000e-01
-1.383602e-01 3.333333e-01 -3.000000e-01
-3.427631e-01 3.333333e-01 -3.000000e-01
-5.471659e-01 3.333333e-01 -3.000000e-01
-7.515687e-01 3.333333e-01 -3.000000e-01
-9.559716e-01 3.333333e-01 -3.000000e-01
-1.160374e+00 3.333333e-01 -3.000000e-01
-1.364777e+00 3.333333e-01 -3.000000e-01
-1.383602e-01 3.333333e-01 -5.000000e-01
-3.427631e-01 3.333333e-01 -5.000000e-01
-5.471659e-01 3.333333e-01 -5.000000e-01
-7.515687e-01 3.333333e-01 -5.000000e-01
-9.559716e-01 3.333333e-01 -5.000000e-01
-1.160374e+00 3.333333e-01 -5.000000e-01
-1.364777e+00 3.333333e-01 -5.000000e-01
9.906390e-02 -2.775558e-17 5.000000e-01
9.906390e-02 -5.551115e-17 3.000000e-01
-1.075404e-01 0.000000e+00 5.000000e-01
-1.075404e-01 0.000000e+00 3.000000e-01
-3.141446e-01 0.000000e+00 5.000000e-01
-3.141446e-01 0.000000e+00 3.000000e-01
-5.207489e-01 0.000000e+00 5.000000e-01
-5.207489e-01 0.000000e+00 3.000000e-01
-7.273532e-01 -5.551115e-17 5.000000e-01
-7.273532e-01 0.000000e+00 3.000000e-01
-9.339574e-01 0.000000e+00 5.000000e-01
-9.339574e-01 0.000000e+00 3.000000e-01
-1.140562e+00 0.000000e+00 5.000000e-01
-1.140562e+00 0.000000e+00 3.000000e-01
-1.075404e-01 -2.775558e-17 1.000000e-01
-3.141446e-01 0.000000e+00 1.000000e-01
-5.207489e-01 -2.775558e-17 1.000000e-01
-7.273532e-01 0.000000e+00 1.000000e-01
-9.339574e-01 0.000000e+00 1.000000e-01
-1.140562e+00 -2.775558e-17 1.000000e-01
-1.075404e-01 0.000000e+00 -1.000000e-01
-3.141446e-01 0.000000e+00 -1.000000e-01
-5.207489e-01 -2.775558e-17 -1.000000e-01
-7.273532e-01 0.000000e+00 -1.000000e-01
-9.339574e-01 0.000000e+00 -1.000000e-01
-1.140562e+00 -2.775558e-17 -1.000000e-01
-1.347166e+00 0.000000e+00 -1.000000e-01
-1.075404e-01 -2.775558e-17 -3.000000e-01
-3.141446e-01 0.000000e+00 -3.000000e-01
-5.207489e-01 0.000000e+00 -3.000000e-01
-7.273532e-01 -2.775558e-17 -3.000000e-01
-9.339574e-01 -2.775558e-17 -3.000000e-01
-1.140562e+00 -2.775558e-17 -3.000000e-01
-1.347166e+00 -5.551115e-17 -3.000000e-01
-1.075404e-01 0.000000e+00 -5.000000e-01
-3.141446e-01 0.000000e+00 -5.000000e-01
-5.207489e-01 0.000000e+00 -5.000000e-01
-7.273532e-01 0.000000e+00 -5.000000e-01
-9.339574e-01 0.000000e+00 -5.000000e-01
-1.140562e+00 0.000000e+00 -5.000000e-01
-1.347166e+00 -5.551115e-17 -5.000000e-01
1.320852e-01 -3.333333e-01 5.000000e-01
1.320852e-01 -3.333333e-01 3.000000e-01
-7.672048e-02 -3.333333e-01 5.000000e-01
-7.672048e-02 -3.333333e-01 3.000000e-01
-2.855262e-01 -3.333333e-01 5.000000e-01
-2.855262e-01 -3.333333e-01 3.000000e-01
-4.943318e-01 -3.333333e-01 5.000000e-01
-4.943318e-01 -3.333333e-01 3.000000e-01
-7.031375e-01 -3.333333e-01 5.000000e-01
-7.031375e-01 -3.333333e-01 3.000000e-01
-9.119432e-01 -3.333333e-01 5.000000e-01
-9.119432e-01 -3.333333e-01 3.000000e-01
-7.672048e-02 -3.333333e-01 1.000000e-01
-2.855262e-01 -3.333333e-01 1.000000e-01
-4.943318e-01 -3.333333e-01 1.000000e-01
-7.031375e-01 -3.333333e-01 1.000000e-01
-9.119432e-01 -3.333333e-01 1.000000e-01
-7.672048e-02 -3.333333e-01 -1.000000e-01
-2.855262e-01 -3.333333e-01 -1.000000e-01
-4.943318e-01 -3.333333e-01 -1.000000e-01
-7.031375e-01 -3.333333e-01 -1.000000e-01
-9.119432e-01 -3.333333e-01 -1.000000e-01
-1.120749e+00 -3.333333e-01 -1.000000e-01
-1.329555e+00 -3.333333e-01 -1.000000e-01
-7.672048e-02 -3.333333e-01 -3.000000e-01
-2.855262e-01 -3.333333e-01 -3.000000e-01
-4.943318e-01 -3.333333e-01 -3.000000e-01
-7.031375e-01 -3.333333e-01 -3.000000e-01
-9.119432e-01 -3.333333e-01 -3.000000e-01
-1.120749e+00 -3.333333e-01 -3.000000e-01
-1.329555e+00 -3.333333e-01 -3.000000e-01
-7.672048e-02 -3.333333e-01 -5.000000e-01
-2.855262e-01 -3.333333e-01 -5.000000e-01
-4.943318e-01 -3.333333e-01 -5.000000e-01
-7.031375e-01 -3.333333e-01 -5.000000e-01
-9.119432e-01 -3.333333e-01 -5.000000e-01
-1.120749e+00 -3.333333e-01 -5.000000e-01
-1.329555e+00 -3.333333e-01 -5.000000e-01
1.651065e-01 -6.666667e-01 5.000000e-01
1.651065e-01 -6.666667e-01 3.000000e-01
-4.590059e-02 -6.666667e-01 5.000000e-01
-4.590059e-02 -6.666667e-01 3.000000e-01
-2.569077e-01 -6.666667e-01 5.000000e-01
-2.569077e-01 -6.666667e-01 3.000000e-01
-4.679148e-01 -6.666667e-01 5.000000e-01
-4.679148e-01 -6.666667e-01 3.000000e-01
-6.789219e-01 -6.666667e-01 5.000000e-01
-6.789219e-01 -6.666667e-01 3.000000e-01
-8.899290e-01 -6.666667e-01 5.000000e-01
-8.899290e-01 -6.666667e-01 3.000000e-01
-4.590059e-02 -6.666667e-01 1.000000e-01
-2.569077e-01 -6.666667e-01 1.000000e-01
-4.679148e-01 -6.666667e-01 1.000000e-01
-6.789219e-01 -6.666667e-01 1.000000e-01
-8.899290e-01 -6.666667e-01 1.000000e-01
-4.590059e-02 -6.666667e-01 -1.000000e-01
-2.569077e-01 -6.666667e-01 -1.000000e-01
-4.679148e-01 -6.666667e-01 -1.000000e-01
-6.789219e-01 -6.666667e-01 -1.000000e-01
-8.899290e-01 -6.666667e-01 -1.000000e-01
-1.100936e+00 -6.666667e-01 -1.000000e-01
-1.311943e+00 -6.666667e-01 -1.000000e-01
-4.590059e-02 -6.666667e-01 -3.000000e-01
-2.569077e-01 -6.666667e-01 -3.000000e-01
-4.679148e-01 -6.666667e-01 -3.000000e-01
-6.789219e-01 -6.666667e-01 -3.000000e-01
-8.899290e-01 -6.666667e-01 -3.000000e-01
-1.100936e+00 -6.666667e-01 -3.000000e-01
-1.311943e+00 -6.666667e-01 -3.000000e-01
-4.590059e-02 -6.666667e-01 -5.000000e-01
-2.569077e-01 -6.666667e-01 -5.000000e-01
-4.679148e-01 -6.666667e-01 -5.000000e-01
-6.789219e-01 -6.666667e-01 -5.000000e-01
-8.899290e-01 -6.666667e-01 -5.000000e-01
-1.100936e+00 -6.666667e-01 -5.000000e-01
-1.311943e+00 -6.666667e-01 -5.000000e-01
1.981278e-01 -1.000000e+00 5.000000e-01
1.981278e-01 -1.000000e+00 3.000000e-01
[...]
CELL_DATA 900
SCALARS Density double 1
LOOKUP_TABLE default
1.000000e+00
1.000000e+00
1.000000e+00
1.000000e+00
1.000000e+00
1.000000e+00
1.000000e+00
1.000000e+00
1.000000e+00
1.000000e+00
1.000000e+00
1.000000e+00
1.000000e+00
1.000000e+00
1.000000e+00
1.000000e+00
1.000000e+00
1.000000e+00
1.000000e+00
1.000000e+00
1.000000e+00
1.000000e+00
1.000000e+00
1.000000e+00
1.000000e+00
1.000000e+00
1.000000e+00
1.000000e+00
1.000000e+00
1.000000e+00
1.000000e+00
1.000000e+00
1.000000e+00
1.000000e+00
1.000000e+00
1.000000e+00
1.000000e+00
1.000000e+00
1.000000e+00
1.000000e+00
1.000000e+00
1.000000e+00
1.000000e+00
1.000000e+00
1.000000e+00
1.000000e+00
1.000000e+00
1.000000e+00
1.000000e+00
1.000000e+00
1.000000e+00
1.000000e+00
1.000000e+00
1.000000e+00
1.000000e+00
1.000000e+00
1.000000e+00
1.000000e+00
1.000000e+00
1.000000e+00
1.000000e+00
1.000000e+00
1.000000e+00
1.000000e+00
1.000000e+00
1.000000e+00
1.000000e+00
1.000000e+00
1.000000e+00
1.000000e+00
1.000000e+00
1.000000e+00
1.000000e+00
1.000000e+00
1.000000e+00
1.000000e+00
1.000000e+00
1.000000e+00
1.000000e+00
1.000000e+00
1.000000e+00
1.000000e+00
1.000000e+00
1.000000e+00
1.000000e+00
1.000000e+00
1.000000e+00
1.000000e+00
1.000000e+00
1.000000e+00
1.000000e+00
1.000000e+00
1.000000e+00
1.000000e+00
1.000000e+00
1.000000e+00
1.000000e+00
1.000000e+00
1.000000e+00
1.000000e+00
1.000000e+00
1.000000e+00
1.000000e+00
1.000000e+00
1.000000e+00
1.000000e+00
1.000000e+00
1.000000e+00
1.000000e+00
1.000000e+00
1.000000e+00
1.000000e+00
1.000000e+00
1.000000e+00
1.000000e+00
1.000000e+00
1.000000e+00
1.000000e+00
1.000000e+00
1.000000e+00
1.000000e+00
1.000000e+00
1.000000e+00
1.000000e+00
1.000000e+00
1.000000e+00
1.000000e+00
1.000000e+00
1.000000e+00
1.000000e+00
1.000000e+00
1.000000e+00
1.000000e+00
1.000000e+00
1.000000e+00
1.000000e+00
1.000000e+00
1.000000e+00
1.000000e+00
1.000000e+00
1.000000e+00
1.000000e+00
1.000000e+00
1.000000e+00
1.000000e+00
1.000000e+00
1.000000e+00
1.000000e+00
1.000000e+00
1.000000e+00
1.000000e+00
1.000000e+00
1.000000e+00
1.000000e+00
1.000000e+00
1.000000e+00
1.000000e+00
1.000000e+00
1.000000e+00
1.000000e+00
1.000000e+00
1.000000e+00
1.000000e+00
1.000000e+00
1.000000e+00
1.000000e+00
1.000000e+00
1.000000e+00
1.000000e+00
1.000000e+00
1.000000e+00
1.000000e+00
1.000000e+00
1.000000e+00
1.000000e+00
1.000000e+00
1.000000e+00
1.000000e+00
1.000000e+00
1.000000e+00
1.000000e+00
1.000000e+00
1.000000e+00
1.000000e+00
1.000000e+00
1.000000e+00
1.000000e+00
1.000000e+00
1.000000e+00
1.000000e+00
1.000000e+00
1.000000e+00
1.000000e+00
1.000000e+00
1.000000e+00
1.000000e+00
1.000000e+00
1.000000e+00
1.000000e+00
1.000000e+00
1.000000e+00
1.000000e+00
1.000000e+00
1.000000e+00
1.000000e+00
1.000000e+00
1.000000e+00
1.000000e+00
1.000000e+00
1.000000e+00
1.000000e+00
1.000000e+00
1.000000e+00
1.000000e+00
1.000000e+00
1.000000e+00
1.000000e+00
1.000000e+00
1.000000e+00
1.000000e+00
1.000000e+00
1.000000e+00
1.000000e+00
1.000000e+00
1.000000e+00
1.000000e+00
1.000000e+00
1.000000e+00
1.000000e+00
1.000000e+00
1.000000e+00
1.000000e+00
1.000000e+00
1.000000e+00
1.000000e+00
1.000000e+00
1.000000e+00
1.000000e+00
1.000003e+00
1.000041e+00
1.000373e+00
1.003255e+00
1.017893e+00
1.080298e+00
1.000000e+00
1.000000e+00
1.000003e+00
1.000043e+00
1.000393e+00
1.003425e+00
1.018733e+00
1.082819e+00
1.000000e+00
1.000003e+00
1.000043e+00
1.000394e+00
1.003432e+00
1.018764e+00
1.082915e+00
1.000000e+00
1.000003e+00
1.000043e+00
1.000393e+00
1.003425e+00
1.018733e+00
1.082819e+00
1.000000e+00
1.000003e+00
1.000041e+00
1.000373e+00
1.003255e+00
1.017893e+00
1.080298e+00
1.000000e+00
1.000000e+00
1.000003e+00
1.000040e+00
1.000369e+00
1.003255e+00
1.018004e+00
1.081176e+00
1.000000e+00
1.000000e+00
1.000003e+00
1.000042e+00
1.000390e+00
1.003426e+00
1.018852e+00
1.083746e+00
1.000000e+00
1.000003e+00
1.000042e+00
1.000390e+00
1.003432e+00
1.018884e+00
1.083844e+00
1.000000e+00
1.000003e+00
1.000042e+00
1.000390e+00
1.003426e+00
1.018852e+00
1.083746e+00
1.000000e+00
1.000003e+00
1.000040e+00
1.000369e+00
1.003255e+00
1.018004e+00
1.081176e+00
1.000000e+00
1.000000e+00
1.000003e+00
1.000038e+00
1.000354e+00
1.003156e+00
1.017621e+00
1.080516e+00
1.000000e+00
1.000000e+00
1.000003e+00
1.000040e+00
1.000373e+00
1.003322e+00
1.018452e+00
1.083067e+00
1.000000e+00
1.000003e+00
1.000040e+00
1.000374e+00
1.003328e+00
1.018483e+00
1.083165e+00
1.000000e+00
1.000003e+00
1.000040e+00
1.000373e+00
1.003322e+00
1.018452e+00
1.083067e+00
1.000000e+00
1.000003e+00
1.000038e+00
1.000354e+00
1.003156e+00
1.017621e+00
1.080516e+00
1.000000e+00
1.000000e+00
1.000003e+00
1.000036e+00
1.000339e+00
1.003059e+00
1.017238e+00
1.079820e+00
1.000000e+00
1.000000e+00
1.000003e+00
1.000038e+00
1.000358e+00
1.003220e+00
1.018050e+00
1.082352e+00
1.000000e+00
1.000003e+00
1.000038e+00
1.000359e+00
1.003226e+00
1.018080e+00
1.082449e+00
1.000000e+00
1.000003e+00
1.000038e+00
1.000358e+00
1.003220e+00
1.018050e+00
1.082352e+00
1.000000e+00
1.000003e+00
1.000036e+00
1.000339e+00
1.003059e+00
1.017238e+00
1.079820e+00
1.000000e+00
1.000000e+00
1.000000e+00
1.000003e+00
1.000034e+00
1.000325e+00
1.002964e+00
1.016852e+00
1.079091e+00
1.000000e+00
1.000000e+00
1.000000e+00
1.000003e+00
1.000036e+00
1.000343e+00
1.003120e+00
1.017646e+00
1.081601e+00
1.000000e+00
1.000003e+00
1.000036e+00
1.000343e+00
1.003125e+00
1.017676e+00
1.081697e+00
1.000000e+00
1.000003e+00
1.000036e+00
1.000343e+00
1.003120e+00
1.017646e+00
1.081601e+00
1.000000e+00
1.000003e+00
1.000034e+00
1.000325e+00
1.002964e+00
1.016852e+00
1.079091e+00
1.000000e+00
1.000000e+00
1.000000e+00
1.000002e+00
1.000031e+00
1.000301e+00
1.002783e+00
1.016020e+00
1.076906e+00
1.000000e+00
1.000000e+00
1.000000e+00
1.000003e+00
1.000033e+00
1.000317e+00
1.002929e+00
1.016772e+00
1.079333e+00
1.000000e+00
1.000003e+00
1.000033e+00
1.000318e+00
1.002935e+00
1.016800e+00
1.079426e+00
1.000000e+00
1.000003e+00
1.000033e+00
1.000317e+00
1.002929e+00
1.016772e+00
1.079333e+00
1.000000e+00
1.000002e+00
1.000031e+00
1.000301e+00
1.002783e+00
1.016020e+00
1.076906e+00
1.000000e+00
1.000000e+00
1.000000e+00
1.000000e+00
1.000000e+00
1.000000e+00
1.000000e+00
1.000000e+00
1.000000e+00
1.000000e+00
1.000000e+00
1.000000e+00
1.000000e+00
1.000000e+00
1.000000e+00
1.000000e+00
1.000000e+00
1.000000e+00
1.000000e+00
1.000000e+00
1.000000e+00
1.000000e+00
1.000000e+00
1.000000e+00
1.000000e+00
1.000000e+00
1.000000e+00
1.000000e+00
1.000000e+00
1.000000e+00
1.000000e+00
1.000000e+00
1.000000e+00
1.000000e+00
1.000000e+00
1.000000e+00
1.000000e+00
1.000000e+00
1.000000e+00
1.000000e+00
1.000000e+00
1.000000e+00
1.000000e+00
1.000000e+00
1.000000e+00
1.000000e+00
1.000000e+00
1.000000e+00
1.000000e+00
1.000000e+00
1.000000e+00
1.000000e+00
1.000000e+00
1.000000e+00
1.000000e+00
1.000000e+00
1.000000e+00
1.000000e+00
1.000000e+00
1.000000e+00
1.000000e+00
1.000000e+00
1.000000e+00
1.000000e+00
1.000000e+00
1.000000e+00
1.000000e+00
1.000000e+00
1.000000e+00
1.000000e+00
1.000000e+00
1.000000e+00
1.000000e+00
1.000000e+00
1.000000e+00
1.000000e+00
1.000000e+00
1.000000e+00
1.000000e+00
1.000000e+00
1.000000e+00
1.000000e+00
1.000000e+00
1.000000e+00
1.000000e+00
1.000000e+00
1.000000e+00
1.000000e+00
1.000000e+00
1.000000e+00
1.000000e+00
1.000000e+00
1.000000e+00
1.000000e+00
1.000000e+00
1.000000e+00
1.000000e+00
1.000000e+00
1.000000e+00
1.000000e+00
1.000000e+00
1.000000e+00
1.000000e+00
1.000000e+00
1.000000e+00
1.000000e+00
1.000000e+00
1.000000e+00
1.000000e+00
1.000000e+00
1.000000e+00
1.000000e+00
1.000000e+00
1.000000e+00
1.000000e+00
1.000000e+00
1.000000e+00
1.000000e+00
1.000000e+00
1.000000e+00
1.000000e+00
1.000000e+00
1.000000e+00
1.000000e+00
1.000000e+00
1.000000e+00
1.000000e+00
1.000000e+00
1.000000e+00
1.000000e+00
1.000000e+00
1.000000e+00
1.000000e+00
1.000000e+00
1.000000e+00
1.000000e+00
1.000000e+00
1.000000e+00
1.000000e+00
1.000000e+00
1.000000e+00
1.000000e+00
1.000000e+00
1.000000e+00
1.000000e+00
1.000000e+00
1.000000e+00
1.000000e+00
1.000000e+00
1.000000e+00
1.000000e+00
1.000000e+00
1.000000e+00
1.000000e+00
1.000000e+00
1.000000e+00
1.000000e+00
1.000000e+00
1.000000e+00
1.000000e+00
1.000000e+00
1.000000e+00
1.000000e+00
1.000000e+00
1.000000e+00
1.000000e+00
1.000000e+00
1.000000e+00
1.000000e+00
1.000000e+00
1.000000e+00
1.000000e+00
1.000000e+00
1.000000e+00
1.000000e+00
1.000000e+00
1.000000e+00
1.000000e+00
1.000000e+00
1.000000e+00
1.000000e+00
1.000000e+00
1.000000e+00
1.000000e+00
1.000000e+00
1.000000e+00
1.000000e+00
1.000000e+00
1.000000e+00
1.000000e+00
1.000000e+00
1.000000e+00
1.000000e+00
1.000000e+00
1.000000e+00
1.000000e+00
1.000000e+00
1.000000e+00
1.000000e+00
1.000000e+00
1.000000e+00
1.000000e+00
1.000000e+00
1.000000e+00
1.000000e+00
1.000000e+00
1.000000e+00
1.000000e+00
1.000000e+00
1.000000e+00
1.000000e+00
1.000000e+00
1.000000e+00
1.000000e+00
1.000000e+00
1.000000e+00
1.000000e+00
1.000000e+00
1.000000e+00
1.000000e+00
1.000000e+00
1.000000e+00
1.000000e+00
1.000000e+00
1.000000e+00
1.000000e+00
1.000000e+00
1.000000e+00
1.000000e+00
1.000000e+00
1.000000e+00
1.000000e+00
1.000000e+00
1.000000e+00
1.000000e+00
1.000000e+00
1.000000e+00
1.000000e+00
1.000000e+00
1.000000e+00
1.000000e+00
1.000000e+00
1.000000e+00
1.000000e+00
1.000000e+00
1.000000e+00
1.000000e+00
1.000000e+00
1.000000e+00
1.000000e+00
1.000000e+00
1.000000e+00
1.000000e+00
1.000000e+00
1.000000e+00
1.000000e+00
1.000000e+00
1.000000e+00
1.000000e+00
1.000000e+00
1.000000e+00
1.000000e+00
1.000000e+00
1.000000e+00
1.000000e+00
1.000000e+00
1.000000e+00
1.000000e+00
1.000000e+00
1.000000e+00
1.000000e+00
1.000000e+00
1.000000e+00
1.000000e+00
1.000000e+00
1.000000e+00
1.000000e+00
1.000000e+00
1.000000e+00
1.000000e+00
1.000000e+00
1.000000e+00
1.000000e+00
1.000000e+00
1.000000e+00
1.000000e+00
1.000000e+00
1.000000e+00
1.000000e+00
1.000000e+00
1.000000e+00
1.000000e+00
1.000000e+00
1.000000e+00
1.000000e+00
1.000000e+00
1.000000e+00
1.000000e+00
1.000000e+00
1.000000e+00
1.000000e+00
1.000000e+00
1.000000e+00
1.000000e+00
1.000000e+00
1.000000e+00
1.000000e+00
1.000000e+00
1.000000e+00
1.000000e+00
1.000000e+00
1.000000e+00
1.000000e+00
1.000000e+00
1.000000e+00
1.000000e+00
1.000000e+00
1.000000e+00
1.000000e+00
1.000000e+00
1.000000e+00
1.000000e+00
1.000000e+00
1.000000e+00
1.000000e+00
1.000000e+00
1.000000e+00
1.000000e+00
1.000000e+00
1.000000e+00
1.000000e+00
1.000000e+00
1.000000e+00
1.000000e+00
1.000000e+00
1.000000e+00
1.000000e+00
1.000000e+00
1.000000e+00
1.000000e+00
1.000000e+00
1.000000e+00
1.000000e+00
1.000000e+00
1.000000e+00
1.000000e+00
1.000000e+00
1.000000e+00
1.000000e+00
1.000000e+00
1.000000e+00
1.000000e+00
1.000000e+00
1.000000e+00
1.000000e+00
1.000000e+00
1.000000e+00
1.000000e+00
1.000000e+00
1.000000e+00
1.000000e+00
1.000000e+00
1.000000e+00
1.000000e+00
1.000000e+00
1.000000e+00
1.000000e+00
1.000000e+00
1.000000e+00
1.000000e+00
1.000000e+00
1.000000e+00
1.000000e+00
1.000000e+00
1.000000e+00
1.000000e+00
1.000000e+00
1.000000e+00
1.000000e+00
1.000000e+00
1.000000e+00
1.000000e+00
1.000000e+00
1.000000e+00
1.000000e+00
1.000000e+00
1.000000e+00
1.000000e+00
1.000000e+00
1.000000e+00
1.000000e+00
1.000000e+00
1.000000e+00
1.000000e+00
1.000000e+00
1.000000e+00
1.000000e+00
1.000000e+00
1.000000e+00
1.000000e+00
1.000000e+00
1.000000e+00
1.000000e+00
1.000000e+00
1.000000e+00
1.000000e+00
1.000000e+00
1.000000e+00
1.000000e+00
1.000000e+00
1.000000e+00
1.000000e+00
1.000000e+00
1.000000e+00
1.000000e+00
1.000000e+00
1.000000e+00
1.000000e+00
1.000000e+00
1.000000e+00
1.000000e+00
1.000000e+00
1.000000e+00
1.000000e+00
1.000000e+00
1.000000e+00
1.000000e+00
1.000000e+00
1.000000e+00
1.000000e+00
1.000000e+00
1.000000e+00
1.000000e+00
1.000000e+00
1.000000e+00
1.000000e+00
1.000000e+00
1.000000e+00
VECTORS Momentum double
-1.152411e-17 5.302425e-17 -2.064866e-17
4.440892e-20 -4.096723e-18 1.711767e-17
9.072721e-17 8.364014e-18 6.627435e-20
1.463243e-14 1.157496e-15 3.759084e-17
4.011052e-13 2.856078e-14 2.144640e-15
9.361939e-12 6.057497e-13 5.658445e-14
2.051277e-10 1.199302e-11 1.314981e-12
3.937418e-09 2.047133e-10 2.839224e-11
8.881784e-18 -5.409562e-18 2.064865e-17
-8.548717e-18 3.808065e-18 -1.711744e-17
1.450574e-16 1.456220e-17 2.959507e-20
1.558799e-14 1.247023e-15 1.749803e-17
4.265697e-13 3.036563e-14 9.197159e-16
9.958933e-12 6.445390e-13 2.437530e-14
2.181180e-10 1.275250e-11 5.610990e-13
4.184792e-09 2.175706e-10 1.208289e-11
4.440892e-19 -1.176004e-17 8.558755e-18
1.421708e-16 1.337981e-17 2.712288e-33
1.562201e-14 1.243660e-15 1.083668e-30
4.276795e-13 3.044014e-14 3.343700e-28
9.979977e-12 6.457641e-13 -2.831704e-28
2.185756e-10 1.277922e-11 -1.488028e-26
4.193518e-09 2.180235e-10 -1.123083e-24
7.596484e-08 3.486997e-09 -1.016600e-22
-8.548717e-18 1.303679e-17 -8.558825e-18
1.450352e-16 1.457885e-17 -2.959415e-20
1.558795e-14 1.246764e-15 -1.749740e-17
4.265663e-13 3.036847e-14 -9.196059e-16
9.958933e-12 6.445392e-13 -2.437532e-14
2.181180e-10 1.275250e-11 -5.610990e-13
4.184792e-09 2.175706e-10 -1.208289e-11
7.580819e-08 3.479805e-09 -2.268949e-10
2.220446e-20 2.353673e-18 -1.644207e-22
8.293345e-17 1.047621e-17 -6.631610e-20
1.463243e-14 1.160596e-15 -3.759822e-17
4.011056e-13 2.855933e-14 -2.145493e-15
9.361940e-12 6.057499e-13 -5.658526e-14
2.051277e-10 1.199302e-11 -1.314980e-12
3.937418e-09 2.047133e-10 -2.839224e-11
7.137050e-08 3.276173e-09 -5.349391e-10
-1.025136e-15 5.950911e-15 -1.138837e-16
-7.169820e-17 4.427569e-17 -1.019193e-18
1.078884e-16 -1.193084e-18 5.101453e-20
1.312239e-14 1.038783e-15 2.760253e-17
3.653420e-13 2.542832e-14 1.938911e-15
8.627258e-12 5.440755e-13 5.236358e-14
1.911313e-10 1.084619e-11 1.225378e-12
3.707709e-09 1.856672e-10 2.674505e-11
-7.904788e-18 1.562084e-17 -6.797684e-17
2.513545e-17 6.170064e-18 -1.331066e-19
7.524431e-17 7.293582e-19 2.246697e-20
1.398014e-14 1.097434e-15 1.293407e-17
3.887029e-13 2.712049e-14 8.325022e-16
9.177685e-12 5.788517e-13 2.247967e-14
2.032377e-10 1.153303e-11 5.228986e-13
3.940713e-09 1.973267e-10 1.138157e-11
-2.511324e-17 3.291811e-18 1.339566e-34
8.989925e-17 1.215633e-17 3.653435e-32
1.398395e-14 1.095761e-15 7.526119e-30
3.896305e-13 2.717493e-14 1.208233e-28
9.197055e-12 5.799845e-13 8.735843e-27
2.036636e-10 1.155694e-11 3.763758e-25
3.948932e-09 1.977378e-10 -2.191839e-24
7.232282e-08 3.177141e-09 -3.919735e-23
2.611245e-17 -5.123679e-18 -1.063574e-18
7.320150e-17 -3.786474e-18 -2.245473e-20
1.398518e-14 1.095100e-15 -1.291189e-17
3.887032e-13 2.712000e-14 -8.325032e-16
9.177685e-12 5.788514e-13 -2.247980e-14
2.032378e-10 1.153303e-11 -5.228991e-13
3.940713e-09 1.973267e-10 -1.138157e-11
7.217359e-08 3.170587e-09 -2.160124e-10
8.180123e-17 -7.421563e-17 -1.949943e-18
1.017155e-16 2.001583e-18 -5.099495e-20
1.312256e-14 1.038556e-15 -2.759825e-17
3.653420e-13 2.542819e-14 -1.938248e-15
8.627257e-12 5.440753e-13 -5.236346e-14
1.911313e-10 1.084619e-11 -1.225379e-12
3.707709e-09 1.856672e-10 -2.674505e-11
6.794728e-08 2.985098e-09 -5.092584e-10
-5.144770e-14 -1.208140e-14 -1.930687e-14
-9.789527e-15 -1.013652e-15 -1.667383e-16
-3.390256e-17 -1.088734e-17 -5.636313e-19
1.123963e-14 8.837472e-16 1.855402e-17
3.217468e-13 2.216499e-14 1.918722e-15
7.677261e-12 4.774809e-13 4.659288e-14
1.719427e-10 9.600588e-12 1.102644e-12
3.371193e-09 1.653339e-10 2.431931e-11
5.701879e-15 5.326506e-16 -1.026974e-14
-1.356693e-17 -3.153033e-18 -9.788159e-17
9.274607e-17 1.116622e-17 -8.213352e-19
1.208057e-14 9.587835e-16 -1.735302e-19
3.422851e-13 2.357930e-14 8.159660e-16
8.167178e-12 5.081676e-13 1.997156e-14
1.828337e-10 1.020795e-11 4.701502e-13
3.583043e-09 1.757127e-10 1.034934e-11
4.130030e-18 3.527734e-18 4.167108e-18
5.226734e-17 8.310171e-18 -5.478018e-24
1.211519e-14 9.617755e-16 -9.926575e-22
3.430725e-13 2.364108e-14 -1.120024e-19
8.184047e-12 5.091137e-13 -1.348408e-19
1.832170e-10 1.022947e-11 -1.596563e-19
3.590518e-09 1.760788e-10 -4.730467e-19
6.647502e-08 2.849374e-09 3.475043e-19
3.345861e-16 3.545456e-17 -1.387914e-16
8.937099e-17 1.061111e-17 -8.012032e-19
1.207366e-14 9.646399e-16 -1.068133e-19
3.422887e-13 2.357806e-14 -8.233730e-16
8.167178e-12 5.081661e-13 -1.997881e-14
1.828337e-10 1.020795e-11 -4.701573e-13
3.583043e-09 1.757127e-10 -1.034935e-11
6.633786e-08 2.843500e-09 -1.985175e-10
1.160948e-14 1.167942e-15 -2.532057e-16
1.827686e-16 1.970763e-17 -1.900811e-18
1.124128e-14 8.835418e-16 -1.795294e-17
3.217487e-13 2.216594e-14 -1.903170e-15
7.677250e-12 4.774828e-13 -4.658960e-14
1.719427e-10 9.600588e-12 -1.102641e-12
3.371193e-09 1.653339e-10 -2.431931e-11
6.245338e-08 2.677227e-09 -4.680142e-10
4.949751e-14 -1.032285e-15 2.164611e-14
1.089873e-14 9.994438e-16 2.255155e-16
1.553202e-16 1.247613e-17 1.517279e-18
9.745564e-15 7.841806e-16 6.893098e-18
2.831830e-13 1.955016e-14 1.462465e-15
6.835958e-12 4.251698e-13 4.218399e-14
1.547356e-10 8.642500e-12 9.910446e-13
3.065934e-09 1.503890e-10 2.211767e-11
-3.205270e-15 -3.534626e-16 1.153272e-14
1.141087e-16 7.993606e-18 1.280001e-16
7.971357e-17 1.058390e-17 1.546410e-18
1.037341e-14 8.244873e-16 1.105812e-17
3.016194e-13 2.078192e-14 6.485404e-16
7.271708e-12 4.523710e-13 1.801891e-14
1.645357e-10 9.188784e-12 4.230504e-13
3.258596e-09 1.598287e-10 9.411699e-12
-9.103829e-19 2.997602e-18 -3.926449e-18
1.802958e-17 -4.265335e-18 2.295938e-24
1.041428e-14 8.358973e-16 5.807233e-22
3.021913e-13 2.082693e-14 1.131932e-19
7.287256e-12 4.532158e-13 1.795108e-19
1.648801e-10 9.208135e-12 2.125097e-19
3.265392e-09 1.601621e-10 -1.783725e-19
6.110593e-08 2.619421e-09 -1.719895e-19
-1.709966e-16 -1.117717e-17 8.871339e-17
7.724888e-17 1.078374e-17 3.839633e-19
1.038110e-14 8.233161e-16 -1.078413e-17
3.016125e-13 2.078144e-14 -6.419229e-16
7.271709e-12 4.523710e-13 -1.801183e-14
1.645357e-10 9.188783e-12 -4.230439e-13
3.258596e-09 1.598287e-10 -9.411703e-12
6.097985e-08 2.614021e-09 -1.824589e-10
-9.072112e-15 -8.036338e-16 1.604337e-16
-4.074519e-17 -6.114553e-18 2.861348e-19
9.744254e-15 7.771141e-16 -7.430613e-18
2.831661e-13 1.954898e-14 -1.477738e-15
6.835981e-12 4.251725e-13 -4.218739e-14
1.547356e-10 8.642500e-12 -9.910469e-13
3.065934e-09 1.503890e-10 -2.211766e-11
5.740924e-08 2.461175e-09 -4.301606e-10
8.465229e-16 6.855757e-15 1.463822e-16
1.130207e-16 8.319179e-17 2.034682e-18
2.731149e-17 8.587575e-18 2.315712e-20
8.405752e-15 6.765670e-16 5.999266e-18
2.493982e-13 1.701819e-14 1.363088e-15
6.088093e-12 3.740800e-13 3.725531e-14
1.392687e-10 7.662927e-12 8.909897e-13
-1.982858e-17 7.268630e-17 8.576466e-17
1.050271e-17 4.726775e-18 7.538889e-19
7.280843e-17 5.387357e-18 9.818068e-21
8.997254e-15 7.323849e-16 2.528026e-18
2.654941e-13 1.812958e-14 5.732317e-16
6.475665e-12 3.975949e-13 1.579829e-14
1.480884e-10 8.147467e-12 3.798891e-13
-1.776357e-17 -4.277134e-18 2.614407e-34
3.839151e-17 -3.241851e-18 5.088742e-32
9.001162e-15 7.207164e-16 8.319488e-30
2.659257e-13 1.813052e-14 1.368576e-27
6.489188e-12 3.984995e-13 1.615255e-25
1.483993e-10 8.164679e-12 1.358641e-23
2.969813e-09 1.428717e-10 7.649908e-22
5.616772e-08 2.352243e-09 2.139538e-20
7.038814e-18 3.080869e-18 -3.330053e-23
7.280843e-17 5.573320e-18 -9.818136e-21
8.997476e-15 7.321767e-16 -2.528033e-18
2.654943e-13 1.813006e-14 -5.732322e-16
6.475665e-12 3.975995e-13 -1.579826e-14
1.480884e-10 8.147467e-12 -3.798891e-13
2.963631e-09 1.425744e-10 -8.560232e-12
5.605184e-08 2.347397e-09 -1.676843e-10
-2.176037e-17 -4.825862e-17 8.873180e-20
2.611245e-17 8.396062e-18 -2.317316e-20
8.405618e-15 6.752125e-16 -6.003656e-18
2.493950e-13 1.701643e-14 -1.363384e-15
6.088093e-12 3.740809e-13 -3.725509e-14
1.392687e-10 7.662928e-12 -8.909889e-13
2.788416e-09 1.341557e-10 -2.011504e-11
5.276996e-08 2.210208e-09 -3.953299e-10
2.577938e-17 5.296319e-17 8.881016e-20
-8.482104e-18 1.054712e-19 6.403446e-23
3.859135e-17 6.705747e-18 1.903148e-20
6.941102e-15 5.567089e-16 4.902603e-18
2.116227e-13 1.398552e-14 1.104326e-15
5.222737e-12 3.096202e-13 3.144330e-14
1.207939e-10 6.378659e-12 7.719631e-13
-8.881784e-18 -8.068546e-18 8.254679e-26