# vtk DataFile Version 2.0
Simplicial Mesh Example
ASCII
DATASET UNSTRUCTURED_GRID
POINTS 1302 double
0.000000e+00 1.000000e+00 5.000000e-01
-5.551115e-17 1.000000e+00 3.000000e-01
3.302130e-02 6.666667e-01 5.000000e-01
3.302130e-02 6.666667e-01 3.000000e-01
-2.000000e-01 1.000000e+00 5.000000e-01
-2.000000e-01 1.000000e+00 3.000000e-01
-1.691801e-01 6.666667e-01 5.000000e-01
-1.691801e-01 6.666667e-01 3.000000e-01
-4.000000e-01 1.000000e+00 5.000000e-01
-4.000000e-01 1.000000e+00 3.000000e-01
-3.713816e-01 6.666667e-01 5.000000e-01
-3.713816e-01 6.666667e-01 3.000000e-01
-6.000000e-01 1.000000e+00 5.000000e-01
-6.000000e-01 1.000000e+00 3.000000e-01
-5.735829e-01 6.666667e-01 5.000000e-01
-5.735829e-01 6.666667e-01 3.000000e-01
-8.000000e-01 1.000000e+00 5.000000e-01
-8.000000e-01 1.000000e+00 3.000000e-01
-7.757844e-01 6.666667e-01 5.000000e-01
-7.757844e-01 6.666667e-01 3.000000e-01
-1.000000e+00 1.000000e+00 5.000000e-01
-1.000000e+00 1.000000e+00 3.000000e-01
-9.779858e-01 6.666667e-01 5.000000e-01
-9.779858e-01 6.666667e-01 3.000000e-01
-1.200000e+00 1.000000e+00 5.000000e-01
-1.200000e+00 1.000000e+00 3.000000e-01
-1.180187e+00 6.666667e-01 5.000000e-01
-1.180187e+00 6.666667e-01 3.000000e-01
-2.000000e-01 1.000000e+00 1.000000e-01
-1.691801e-01 6.666667e-01 1.000000e-01
-4.000000e-01 1.000000e+00 1.000000e-01
-3.713816e-01 6.666667e-01 1.000000e-01
-6.000000e-01 1.000000e+00 1.000000e-01
-5.735829e-01 6.666667e-01 1.000000e-01
-8.000000e-01 1.000000e+00 1.000000e-01
-7.757844e-01 6.666667e-01 1.000000e-01
-1.000000e+00 1.000000e+00 1.000000e-01
-9.779858e-01 6.666667e-01 1.000000e-01
-1.200000e+00 1.000000e+00 1.000000e-01
-1.180187e+00 6.666667e-01 1.000000e-01
-2.000000e-01 1.000000e+00 -1.000000e-01
-1.691801e-01 6.666667e-01 -1.000000e-01
-4.000000e-01 1.000000e+00 -1.000000e-01
-3.713816e-01 6.666667e-01 -1.000000e-01
-6.000000e-01 1.000000e+00 -1.000000e-01
-5.735829e-01 6.666667e-01 -1.000000e-01
-8.000000e-01 1.000000e+00 -1.000000e-01
-7.757844e-01 6.666667e-01 -1.000000e-01
-1.000000e+00 1.000000e+00 -1.000000e-01
-9.779858e-01 6.666667e-01 -1.000000e-01
-1.200000e+00 1.000000e+00 -1.000000e-01
-1.180187e+00 6.666667e-01 -1.000000e-01
-1.400000e+00 1.000000e+00 -1.000000e-01
-1.382389e+00 6.666667e-01 -1.000000e-01
-2.000000e-01 1.000000e+00 -3.000000e-01
-1.691801e-01 6.666667e-01 -3.000000e-01
-4.000000e-01 1.000000e+00 -3.000000e-01
-3.713816e-01 6.666667e-01 -3.000000e-01
-6.000000e-01 1.000000e+00 -3.000000e-01
-5.735829e-01 6.666667e-01 -3.000000e-01
-8.000000e-01 1.000000e+00 -3.000000e-01
-7.757844e-01 6.666667e-01 -3.000000e-01
-1.000000e+00 1.000000e+00 -3.000000e-01
-9.779858e-01 6.666667e-01 -3.000000e-01
-1.200000e+00 1.000000e+00 -3.000000e-01
-1.180187e+00 6.666667e-01 -3.000000e-01
-1.400000e+00 1.000000e+00 -3.000000e-01
-1.382389e+00 6.666667e-01 -3.000000e-01
-2.000000e-01 1.000000e+00 -5.000000e-01
-1.691801e-01 6.666667e-01 -5.000000e-01
-4.000000e-01 1.000000e+00 -5.000000e-01
-3.713816e-01 6.666667e-01 -5.000000e-01
-6.000000e-01 1.000000e+00 -5.000000e-01
-5.735829e-01 6.666667e-01 -5.000000e-01
-8.000000e-01 1.000000e+00 -5.000000e-01
-7.757844e-01 6.666667e-01 -5.000000e-01
-1.000000e+00 1.000000e+00 -5.000000e-01
-9.779858e-01 6.666667e-01 -5.000000e-01
-1.200000e+00 1.000000e+00 -5.000000e-01
-1.180187e+00 6.666667e-01 -5.000000e-01
-1.400000e+00 1.000000e+00 -5.000000e-01
-1.382389e+00 6.666667e-01 -5.000000e-01
6.604260e-02 3.333333e-01 5.000000e-01
6.604260e-02 3.333333e-01 3.000000e-01
-1.383602e-01 3.333333e-01 5.000000e-01
-1.383602e-01 3.333333e-01 3.000000e-01
-3.427631e-01 3.333333e-01 5.000000e-01
-3.427631e-01 3.333333e-01 3.000000e-01
-5.471659e-01 3.333333e-01 5.000000e-01
-5.471659e-01 3.333333e-01 3.000000e-01
-7.515687e-01 3.333333e-01 5.000000e-01
-7.515687e-01 3.333333e-01 3.000000e-01
-9.559716e-01 3.333333e-01 5.000000e-01
-9.559716e-01 3.333333e-01 3.000000e-01
-1.160374e+00 3.333333e-01 5.000000e-01
-1.160374e+00 3.333333e-01 3.000000e-01
-1.383602e-01 3.333333e-01 1.000000e-01
-3.427631e-01 3.333333e-01 1.000000e-01
-5.471659e-01 3.333333e-01 1.000000e-01
-7.515687e-01 3.333333e-01 1.000000e-01
-9.559716e-01 3.333333e-01 1.000000e-01
-1.160374e+00 3.333333e-01 1.000000e-01
-1.383602e-01 3.333333e-01 -1.000000e-01
-3.427631e-01 3.333333e-01 -1.000000e-01
-5.471659e-01 3.333333e-01 -1.000000e-01
-7.515687e-01 3.333333e-01 -1.000000e-01
-9.559716e-01 3.333333e-01 -1.000000e-01
-1.160374e+00 3.333333e-01 -1.000000e-01
-1.364777e+00 3.333333e-01 -1.000000e-01
-1.383602e-01 3.333333e-01 -3.000000e-01
-3.427631e-01 3.333333e-01 -3.000000e-01
-5.471659e-01 3.333333e-01 -3.000000e-01
-7.515687e-01 3.333333e-01 -3.000000e-01
-9.559716e-01 3.333333e-01 -3.000000e-01
-1.160374e+00 3.333333e-01 -3.000000e-01
-1.364777e+00 3.333333e-01 -3.000000e-01
-1.383602e-01 3.333333e-01 -5.000000e-01
-3.427631e-01 3.333333e-01 -5.000000e-01
-5.471659e-01 3.333333e-01 -5.000000e-01
-7.515687e-01 3.333333e-01 -5.000000e-01
-9.559716e-01 3.333333e-01 -5.000000e-01
-1.160374e+00 3.333333e-01 -5.000000e-01
-1.364777e+00 3.333333e-01 -5.000000e-01
9.906390e-02 -2.775558e-17 5.000000e-01
9.906390e-02 -5.551115e-17 3.000000e-01
-1.075404e-01 0.000000e+00 5.000000e-01
-1.075404e-01 0.000000e+00 3.000000e-01
-3.141446e-01 0.000000e+00 5.000000e-01
-3.141446e-01 0.000000e+00 3.000000e-01
-5.207489e-01 0.000000e+00 5.000000e-01
-5.207489e-01 0.000000e+00 3.000000e-01
-7.273532e-01 -5.551115e-17 5.000000e-01
-7.273532e-01 0.000000e+00 3.000000e-01
-9.339574e-01 0.000000e+00 5.000000e-01
-9.339574e-01 0.000000e+00 3.000000e-01
-1.140562e+00 0.000000e+00 5.000000e-01
-1.140562e+00 0.000000e+00 3.000000e-01
-1.075404e-01 -2.775558e-17 1.000000e-01
-3.141446e-01 0.000000e+00 1.000000e-01
-5.207489e-01 -2.775558e-17 1.000000e-01
-7.273532e-01 0.000000e+00 1.000000e-01
-9.339574e-01 0.000000e+00 1.000000e-01
-1.140562e+00 -2.775558e-17 1.000000e-01
-1.075404e-01 0.000000e+00 -1.000000e-01
-3.141446e-01 0.000000e+00 -1.000000e-01
-5.207489e-01 -2.775558e-17 -1.000000e-01
-7.273532e-01 0.000000e+00 -1.000000e-01
-9.339574e-01 0.000000e+00 -1.000000e-01
-1.140562e+00 -2.775558e-17 -1.000000e-01
-1.347166e+00 0.000000e+00 -1.000000e-01
-1.075404e-01 -2.775558e-17 -3.000000e-01
-3.141446e-01 0.000000e+00 -3.000000e-01
-5.207489e-01 0.000000e+00 -3.000000e-01
-7.273532e-01 -2.775558e-17 -3.000000e-01
-9.339574e-01 -2.775558e-17 -3.000000e-01
-1.140562e+00 -2.775558e-17 -3.000000e-01
-1.347166e+00 -5.551115e-17 -3.000000e-01
-1.075404e-01 0.000000e+00 -5.000000e-01
-3.141446e-01 0.000000e+00 -5.000000e-01
-5.207489e-01 0.000000e+00 -5.000000e-01
-7.273532e-01 0.000000e+00 -5.000000e-01
-9.339574e-01 0.000000e+00 -5.000000e-01
-1.140562e+00 0.000000e+00 -5.000000e-01
-1.347166e+00 -5.551115e-17 -5.000000e-01
1.320852e-01 -3.333333e-01 5.000000e-01
1.320852e-01 -3.333333e-01 3.000000e-01
-7.672048e-02 -3.333333e-01 5.000000e-01
-7.672048e-02 -3.333333e-01 3.000000e-01
-2.855262e-01 -3.333333e-01 5.000000e-01
-2.855262e-01 -3.333333e-01 3.000000e-01
-4.943318e-01 -3.333333e-01 5.000000e-01
-4.943318e-01 -3.333333e-01 3.000000e-01
-7.031375e-01 -3.333333e-01 5.000000e-01
-7.031375e-01 -3.333333e-01 3.000000e-01
-9.119432e-01 -3.333333e-01 5.000000e-01
-9.119432e-01 -3.333333e-01 3.000000e-01
-7.672048e-02 -3.333333e-01 1.000000e-01
-2.855262e-01 -3.333333e-01 1.000000e-01
-4.943318e-01 -3.333333e-01 1.000000e-01
-7.031375e-01 -3.333333e-01 1.000000e-01
-9.119432e-01 -3.333333e-01 1.000000e-01
-7.672048e-02 -3.333333e-01 -1.000000e-01
-2.855262e-01 -3.333333e-01 -1.000000e-01
-4.943318e-01 -3.333333e-01 -1.000000e-01
-7.031375e-01 -3.333333e-01 -1.000000e-01
-9.119432e-01 -3.333333e-01 -1.000000e-01
-1.120749e+00 -3.333333e-01 -1.000000e-01
-1.329555e+00 -3.333333e-01 -1.000000e-01
-7.672048e-02 -3.333333e-01 -3.000000e-01
-2.855262e-01 -3.333333e-01 -3.000000e-01
-4.943318e-01 -3.333333e-01 -3.000000e-01
-7.031375e-01 -3.333333e-01 -3.000000e-01
-9.119432e-01 -3.333333e-01 -3.000000e-01
-1.120749e+00 -3.333333e-01 -3.000000e-01
-1.329555e+00 -3.333333e-01 -3.000000e-01
-7.672048e-02 -3.333333e-01 -5.000000e-01
-2.855262e-01 -3.333333e-01 -5.000000e-01
-4.943318e-01 -3.333333e-01 -5.000000e-01
-7.031375e-01 -3.333333e-01 -5.000000e-01
-9.119432e-01 -3.333333e-01 -5.000000e-01
-1.120749e+00 -3.333333e-01 -5.000000e-01
-1.329555e+00 -3.333333e-01 -5.000000e-01
1.651065e-01 -6.666667e-01 5.000000e-01
1.651065e-01 -6.666667e-01 3.000000e-01
-4.590059e-02 -6.666667e-01 5.000000e-01
-4.590059e-02 -6.666667e-01 3.000000e-01
-2.569077e-01 -6.666667e-01 5.000000e-01
-2.569077e-01 -6.666667e-01 3.000000e-01
-4.679148e-01 -6.666667e-01 5.000000e-01
-4.679148e-01 -6.666667e-01 3.000000e-01
-6.789219e-01 -6.666667e-01 5.000000e-01
-6.789219e-01 -6.666667e-01 3.000000e-01
-8.899290e-01 -6.666667e-01 5.000000e-01
-8.899290e-01 -6.666667e-01 3.000000e-01
-4.590059e-02 -6.666667e-01 1.000000e-01
-2.569077e-01 -6.666667e-01 1.000000e-01
-4.679148e-01 -6.666667e-01 1.000000e-01
-6.789219e-01 -6.666667e-01 1.000000e-01
-8.899290e-01 -6.666667e-01 1.000000e-01
-4.590059e-02 -6.666667e-01 -1.000000e-01
-2.569077e-01 -6.666667e-01 -1.000000e-01
-4.679148e-01 -6.666667e-01 -1.000000e-01
-6.789219e-01 -6.666667e-01 -1.000000e-01
-8.899290e-01 -6.666667e-01 -1.000000e-01
-1.100936e+00 -6.666667e-01 -1.000000e-01
-1.311943e+00 -6.666667e-01 -1.000000e-01
-4.590059e-02 -6.666667e-01 -3.000000e-01
-2.569077e-01 -6.666667e-01 -3.000000e-01
-4.679148e-01 -6.666667e-01 -3.000000e-01
-6.789219e-01 -6.666667e-01 -3.000000e-01
-8.899290e-01 -6.666667e-01 -3.000000e-01
-1.100936e+00 -6.666667e-01 -3.000000e-01
-1.311943e+00 -6.666667e-01 -3.000000e-01
-4.590059e-02 -6.666667e-01 -5.000000e-01
-2.569077e-01 -6.666667e-01 -5.000000e-01
-4.679148e-01 -6.666667e-01 -5.000000e-01
-6.789219e-01 -6.666667e-01 -5.000000e-01
-8.899290e-01 -6.666667e-01 -5.000000e-01
-1.100936e+00 -6.666667e-01 -5.000000e-01
-1.311943e+00 -6.666667e-01 -5.000000e-01
1.981278e-01 -1.000000e+00 5.000000e-01
1.981278e-01 -1.000000e+00 3.000000e-01
[...]
CELL_DATA 900
SCALARS Density double 1
LOOKUP_TABLE default
1.000000e+00
1.000000e+00
1.000000e+00
1.000000e+00
1.000000e+00
1.000000e+00
1.000000e+00
1.000000e+00
1.000000e+00
1.000000e+00
1.000000e+00
1.000000e+00
1.000000e+00
1.000000e+00
1.000000e+00
1.000000e+00
1.000000e+00
1.000000e+00
1.000000e+00
1.000000e+00
1.000000e+00
1.000000e+00
1.000000e+00
1.000000e+00
1.000000e+00
1.000000e+00
1.000000e+00
1.000000e+00
1.000000e+00
1.000000e+00
1.000000e+00
1.000000e+00
1.000000e+00
1.000000e+00
1.000000e+00
1.000000e+00
1.000000e+00
1.000000e+00
1.000000e+00
1.000000e+00
1.000000e+00
1.000000e+00
1.000000e+00
1.000000e+00
1.000000e+00
1.000000e+00
1.000000e+00
1.000000e+00
1.000000e+00
1.000000e+00
1.000000e+00
1.000000e+00
1.000000e+00
1.000000e+00
1.000000e+00
1.000000e+00
1.000000e+00
1.000000e+00
1.000000e+00
1.000000e+00
1.000000e+00
1.000000e+00
1.000000e+00
1.000000e+00
1.000000e+00
1.000000e+00
1.000000e+00
1.000000e+00
1.000000e+00
1.000000e+00
1.000000e+00
1.000000e+00
1.000000e+00
1.000000e+00
1.000000e+00
1.000000e+00
1.000000e+00
1.000000e+00
1.000000e+00
1.000000e+00
1.000000e+00
1.000000e+00
1.000000e+00
1.000000e+00
1.000000e+00
1.000000e+00
1.000000e+00
1.000000e+00
1.000000e+00
1.000000e+00
1.000000e+00
1.000000e+00
1.000000e+00
1.000000e+00
1.000000e+00
1.000000e+00
1.000000e+00
1.000000e+00
1.000000e+00
1.000000e+00
1.000000e+00
1.000000e+00
1.000000e+00
1.000000e+00
1.000000e+00
1.000000e+00
1.000000e+00
1.000000e+00
1.000000e+00
1.000000e+00
1.000000e+00
1.000000e+00
1.000000e+00
1.000000e+00
1.000000e+00
1.000000e+00
1.000000e+00
1.000000e+00
1.000000e+00
1.000000e+00
1.000000e+00
1.000000e+00
1.000000e+00
1.000000e+00
1.000000e+00
1.000000e+00
1.000000e+00
1.000000e+00
1.000000e+00
1.000000e+00
1.000000e+00
1.000000e+00
1.000000e+00
1.000000e+00
1.000000e+00
1.000000e+00
1.000000e+00
1.000000e+00
1.000000e+00
1.000000e+00
1.000000e+00
1.000000e+00
1.000000e+00
1.000000e+00
1.000000e+00
1.000000e+00
1.000000e+00
1.000000e+00
1.000000e+00
1.000000e+00
1.000000e+00
1.000000e+00
1.000000e+00
1.000000e+00
1.000000e+00
1.000000e+00
1.000000e+00
1.000000e+00
1.000000e+00
1.000000e+00
1.000000e+00
1.000000e+00
1.000000e+00
1.000000e+00
1.000000e+00
1.000000e+00
1.000000e+00
1.000000e+00
1.000000e+00
1.000000e+00
1.000000e+00
1.000000e+00
1.000000e+00
1.000000e+00
1.000000e+00
1.000000e+00
1.000000e+00
1.000000e+00
1.000000e+00
1.000000e+00
1.000000e+00
1.000000e+00
1.000000e+00
1.000000e+00
1.000000e+00
1.000000e+00
1.000000e+00
1.000000e+00
1.000000e+00
1.000000e+00
1.000000e+00
1.000000e+00
1.000000e+00
1.000000e+00
1.000000e+00
1.000000e+00
1.000000e+00
1.000000e+00
1.000000e+00
1.000000e+00
1.000000e+00
1.000000e+00
1.000000e+00
1.000000e+00
1.000000e+00
1.000000e+00
1.000000e+00
1.000000e+00
1.000000e+00
1.000000e+00
1.000000e+00
1.000000e+00
1.000000e+00
1.000000e+00
1.000000e+00
1.000000e+00
1.000000e+00
1.000000e+00
1.000000e+00
1.000000e+00
1.000000e+00
1.000000e+00
1.000000e+00
1.000000e+00
1.000000e+00
1.000000e+00
1.000000e+00
1.000000e+00
1.000000e+00
1.000000e+00
1.000000e+00
1.000000e+00
1.000000e+00
1.000000e+00
1.000000e+00
1.000000e+00
1.000000e+00
1.000002e+00
1.000021e+00
1.000189e+00
1.001285e+00
1.007956e+00
1.033231e+00
1.100513e+00
1.000000e+00
1.000002e+00
1.000023e+00
1.000203e+00
1.001381e+00
1.008510e+00
1.035262e+00
1.104445e+00
1.000002e+00
1.000023e+00
1.000204e+00
1.001386e+00
1.008537e+00
1.035362e+00
1.104628e+00
1.000002e+00
1.000023e+00
1.000203e+00
1.001381e+00
1.008510e+00
1.035262e+00
1.104445e+00
1.000002e+00
1.000021e+00
1.000189e+00
1.001285e+00
1.007956e+00
1.033231e+00
1.100513e+00
1.000000e+00
1.000002e+00
1.000021e+00
1.000188e+00
1.001288e+00
1.008051e+00
1.033793e+00
1.102291e+00
1.000000e+00
1.000002e+00
1.000022e+00
1.000202e+00
1.001385e+00
1.008613e+00
1.035868e+00
1.106335e+00
1.000002e+00
1.000022e+00
1.000203e+00
1.001390e+00
1.008641e+00
1.035971e+00
1.106524e+00
1.000002e+00
1.000022e+00
1.000202e+00
1.001385e+00
1.008613e+00
1.035868e+00
1.106335e+00
1.000002e+00
1.000021e+00
1.000188e+00
1.001288e+00
1.008051e+00
1.033793e+00
1.102291e+00
1.000000e+00
1.000002e+00
1.000019e+00
1.000178e+00
1.001236e+00
1.007818e+00
1.033126e+00
1.101611e+00
1.000000e+00
1.000002e+00
1.000021e+00
1.000192e+00
1.001329e+00
1.008364e+00
1.035162e+00
1.105636e+00
1.000002e+00
1.000021e+00
1.000193e+00
1.001334e+00
1.008391e+00
1.035263e+00
1.105824e+00
1.000002e+00
1.000021e+00
1.000192e+00
1.001329e+00
1.008364e+00
1.035162e+00
1.105636e+00
1.000002e+00
1.000019e+00
1.000178e+00
1.001236e+00
1.007818e+00
1.033126e+00
1.101611e+00
1.000000e+00
1.000002e+00
1.000018e+00
1.000169e+00
1.001185e+00
1.007583e+00
1.032431e+00
1.100838e+00
1.000000e+00
1.000002e+00
1.000020e+00
1.000182e+00
1.001274e+00
1.008112e+00
1.034425e+00
1.104839e+00
1.000002e+00
1.000020e+00
1.000183e+00
1.001278e+00
1.008138e+00
1.034524e+00
1.105027e+00
1.000002e+00
1.000020e+00
1.000182e+00
1.001274e+00
1.008112e+00
1.034425e+00
1.104839e+00
1.000002e+00
1.000018e+00
1.000169e+00
1.001185e+00
1.007583e+00
1.032431e+00
1.100838e+00
1.000000e+00
1.000000e+00
1.000002e+00
1.000017e+00
1.000160e+00
1.001134e+00
1.007344e+00
1.031709e+00
1.099974e+00
1.000000e+00
1.000000e+00
1.000002e+00
1.000018e+00
1.000173e+00
1.001220e+00
1.007857e+00
1.033658e+00
1.103945e+00
1.000002e+00
1.000018e+00
1.000174e+00
1.001224e+00
1.007882e+00
1.033755e+00
1.104132e+00
1.000002e+00
1.000018e+00
1.000173e+00
1.001220e+00
1.007857e+00
1.033658e+00
1.103945e+00
1.000002e+00
1.000017e+00
1.000160e+00
1.001134e+00
1.007344e+00
1.031709e+00
1.099974e+00
1.000000e+00
1.000000e+00
1.000002e+00
1.000015e+00
1.000145e+00
1.001038e+00
1.006824e+00
1.029880e+00
1.096772e+00
1.000000e+00
1.000000e+00
1.000002e+00
1.000016e+00
1.000157e+00
1.001116e+00
1.007299e+00
1.031711e+00
1.100587e+00
1.000002e+00
1.000016e+00
1.000157e+00
1.001120e+00
1.007322e+00
1.031801e+00
1.100768e+00
1.000002e+00
1.000016e+00
1.000157e+00
1.001116e+00
1.007299e+00
1.031711e+00
1.100587e+00
1.000002e+00
1.000015e+00
1.000145e+00
1.001038e+00
1.006824e+00
1.029880e+00
1.096772e+00
1.000000e+00
1.000000e+00
1.000000e+00
1.000000e+00
1.000000e+00
1.000000e+00
1.000000e+00
1.000000e+00
1.000000e+00
1.000000e+00
1.000000e+00
1.000000e+00
1.000000e+00
1.000000e+00
1.000000e+00
1.000000e+00
1.000000e+00
1.000000e+00
1.000000e+00
1.000000e+00
1.000000e+00
1.000000e+00
1.000000e+00
1.000000e+00
1.000000e+00
1.000000e+00
1.000000e+00
1.000000e+00
1.000000e+00
1.000000e+00
1.000000e+00
1.000000e+00
1.000000e+00
1.000000e+00
1.000000e+00
1.000000e+00
1.000000e+00
1.000000e+00
1.000000e+00
1.000000e+00
1.000000e+00
1.000000e+00
1.000000e+00
1.000000e+00
1.000000e+00
1.000000e+00
1.000000e+00
1.000000e+00
1.000000e+00
1.000000e+00
1.000000e+00
1.000000e+00
1.000000e+00
1.000000e+00
1.000000e+00
1.000000e+00
1.000000e+00
1.000000e+00
1.000000e+00
1.000000e+00
1.000000e+00
1.000000e+00
1.000000e+00
1.000000e+00
1.000000e+00
1.000000e+00
1.000000e+00
1.000000e+00
1.000000e+00
1.000000e+00
1.000000e+00
1.000000e+00
1.000000e+00
1.000000e+00
1.000000e+00
1.000000e+00
1.000000e+00
1.000000e+00
1.000000e+00
1.000000e+00
1.000000e+00
1.000000e+00
1.000000e+00
1.000000e+00
1.000000e+00
1.000000e+00
1.000000e+00
1.000000e+00
1.000000e+00
1.000000e+00
1.000000e+00
1.000000e+00
1.000000e+00
1.000000e+00
1.000000e+00
1.000000e+00
1.000000e+00
1.000000e+00
1.000000e+00
1.000000e+00
1.000000e+00
1.000000e+00
1.000000e+00
1.000000e+00
1.000000e+00
1.000000e+00
1.000000e+00
1.000000e+00
1.000000e+00
1.000000e+00
1.000000e+00
1.000000e+00
1.000000e+00
1.000000e+00
1.000000e+00
1.000000e+00
1.000000e+00
1.000000e+00
1.000000e+00
1.000000e+00
1.000000e+00
1.000000e+00
1.000000e+00
1.000000e+00
1.000000e+00
1.000000e+00
1.000000e+00
1.000000e+00
1.000000e+00
1.000000e+00
1.000000e+00
1.000000e+00
1.000000e+00
1.000000e+00
1.000000e+00
1.000000e+00
1.000000e+00
1.000000e+00
1.000000e+00
1.000000e+00
1.000000e+00
1.000000e+00
1.000000e+00
1.000000e+00
1.000000e+00
1.000000e+00
1.000000e+00
1.000000e+00
1.000000e+00
1.000000e+00
1.000000e+00
1.000000e+00
1.000000e+00
1.000000e+00
1.000000e+00
1.000000e+00
1.000000e+00
1.000000e+00
1.000000e+00
1.000000e+00
1.000000e+00
1.000000e+00
1.000000e+00
1.000000e+00
1.000000e+00
1.000000e+00
1.000000e+00
1.000000e+00
1.000000e+00
1.000000e+00
1.000000e+00
1.000000e+00
1.000000e+00
1.000000e+00
1.000000e+00
1.000000e+00
1.000000e+00
1.000000e+00
1.000000e+00
1.000000e+00
1.000000e+00
1.000000e+00
1.000000e+00
1.000000e+00
1.000000e+00
1.000000e+00
1.000000e+00
1.000000e+00
1.000000e+00
1.000000e+00
1.000000e+00
1.000000e+00
1.000000e+00
1.000000e+00
1.000000e+00
1.000000e+00
1.000000e+00
1.000000e+00
1.000000e+00
1.000000e+00
1.000000e+00
1.000000e+00
1.000000e+00
1.000000e+00
1.000000e+00
1.000000e+00
1.000000e+00
1.000000e+00
1.000000e+00
1.000000e+00
1.000000e+00
1.000000e+00
1.000000e+00
1.000000e+00
1.000000e+00
1.000000e+00
1.000000e+00
1.000000e+00
1.000000e+00
1.000000e+00
1.000000e+00
1.000000e+00
1.000000e+00
1.000000e+00
1.000000e+00
1.000000e+00
1.000000e+00
1.000000e+00
1.000000e+00
1.000000e+00
1.000000e+00
1.000000e+00
1.000000e+00
1.000000e+00
1.000000e+00
1.000000e+00
1.000000e+00
1.000000e+00
1.000000e+00
1.000000e+00
1.000000e+00
1.000000e+00
1.000000e+00
1.000000e+00
1.000000e+00
1.000000e+00
1.000000e+00
1.000000e+00
1.000000e+00
1.000000e+00
1.000000e+00
1.000000e+00
1.000000e+00
1.000000e+00
1.000000e+00
1.000000e+00
1.000000e+00
1.000000e+00
1.000000e+00
1.000000e+00
1.000000e+00
1.000000e+00
1.000000e+00
1.000000e+00
1.000000e+00
1.000000e+00
1.000000e+00
1.000000e+00
1.000000e+00
1.000000e+00
1.000000e+00
1.000000e+00
1.000000e+00
1.000000e+00
1.000000e+00
1.000000e+00
1.000000e+00
1.000000e+00
1.000000e+00
1.000000e+00
1.000000e+00
1.000000e+00
1.000000e+00
1.000000e+00
1.000000e+00
1.000000e+00
1.000000e+00
1.000000e+00
1.000000e+00
1.000000e+00
1.000000e+00
1.000000e+00
1.000000e+00
1.000000e+00
1.000000e+00
1.000000e+00
1.000000e+00
1.000000e+00
1.000000e+00
1.000000e+00
1.000000e+00
1.000000e+00
1.000000e+00
1.000000e+00
1.000000e+00
1.000000e+00
1.000000e+00
1.000000e+00
1.000000e+00
1.000000e+00
1.000000e+00
1.000000e+00
1.000000e+00
1.000000e+00
1.000000e+00
1.000000e+00
1.000000e+00
1.000000e+00
1.000000e+00
1.000000e+00
1.000000e+00
1.000000e+00
1.000000e+00
1.000000e+00
1.000000e+00
1.000000e+00
1.000000e+00
1.000000e+00
1.000000e+00
1.000000e+00
1.000000e+00
1.000000e+00
1.000000e+00
1.000000e+00
1.000000e+00
1.000000e+00
1.000000e+00
1.000000e+00
1.000000e+00
1.000000e+00
1.000000e+00
1.000000e+00
1.000000e+00
1.000000e+00
1.000000e+00
1.000000e+00
1.000000e+00
1.000000e+00
1.000000e+00
1.000000e+00
1.000000e+00
1.000000e+00
1.000000e+00
1.000000e+00
1.000000e+00
1.000000e+00
1.000000e+00
1.000000e+00
1.000000e+00
1.000000e+00
1.000000e+00
1.000000e+00
1.000000e+00
1.000000e+00
1.000000e+00
1.000000e+00
1.000000e+00
1.000000e+00
1.000000e+00
1.000000e+00
1.000000e+00
1.000000e+00
1.000000e+00
1.000000e+00
1.000000e+00
1.000000e+00
1.000000e+00
1.000000e+00
1.000000e+00
1.000000e+00
1.000000e+00
1.000000e+00
1.000000e+00
1.000000e+00
1.000000e+00
1.000000e+00
1.000000e+00
1.000000e+00
1.000000e+00
1.000000e+00
1.000000e+00
1.000000e+00
1.000000e+00
1.000000e+00
1.000000e+00
1.000000e+00
1.000000e+00
1.000000e+00
1.000000e+00
1.000000e+00
1.000000e+00
1.000000e+00
1.000000e+00
1.000000e+00
1.000000e+00
1.000000e+00
1.000000e+00
1.000000e+00
1.000000e+00
1.000000e+00
1.000000e+00
1.000000e+00
1.000000e+00
1.000000e+00
1.000000e+00
1.000000e+00
1.000000e+00
1.000000e+00
1.000000e+00
1.000000e+00
1.000000e+00
1.000000e+00
1.000000e+00
1.000000e+00
1.000000e+00
1.000000e+00
1.000000e+00
1.000000e+00
1.000000e+00
1.000000e+00
1.000000e+00
1.000000e+00
1.000000e+00
1.000000e+00
1.000000e+00
1.000000e+00
1.000000e+00
1.000000e+00
VECTORS Momentum double
-2.156719e-16 3.323425e-16 -3.684843e-17
1.172095e-15 1.103436e-16 2.465328e-17
4.635296e-14 3.880166e-15 3.531630e-16
9.490276e-13 7.304680e-14 9.135149e-15
1.767172e-11 1.247823e-12 1.756315e-13
2.980182e-10 1.914207e-11 3.229336e-12
4.716119e-09 2.741419e-10 5.376171e-11
6.573615e-08 3.409459e-09 8.374873e-10
1.374456e-17 -2.259304e-18 2.009952e-17
1.333286e-15 1.303362e-16 -2.254116e-17
5.068642e-14 4.236764e-15 1.627754e-16
1.031897e-12 7.915478e-14 4.066211e-15
1.920444e-11 1.355402e-12 8.076676e-14
3.237315e-10 2.079417e-11 1.475850e-12
5.120055e-09 2.976157e-10 2.452559e-11
7.131653e-08 3.698806e-09 3.814208e-10
1.347386e-15 1.100608e-16 1.160691e-17
5.073883e-14 4.240479e-15 -2.439820e-30
1.036299e-12 7.958698e-14 7.112292e-29
1.927875e-11 1.360076e-12 1.516889e-26
3.249627e-10 2.087227e-11 -9.015553e-27
5.139423e-09 2.987421e-10 -3.388946e-25
7.158439e-08 3.712706e-09 -1.922806e-23
9.365122e-07 4.305398e-08 -1.260347e-21
1.333797e-15 1.417521e-16 -1.228083e-17
5.068613e-14 4.236964e-15 -1.630405e-16
1.031897e-12 7.915474e-14 -4.066210e-15
1.920444e-11 1.355405e-12 -8.076683e-14
3.237315e-10 2.079417e-11 -1.475850e-12
5.120055e-09 2.976157e-10 -2.452559e-11
7.131653e-08 3.698806e-09 -3.814208e-10
9.330454e-07 4.289444e-08 -5.198909e-09
1.187283e-15 1.029689e-16 -1.441790e-18
4.634674e-14 3.881007e-15 -3.534877e-16
9.490274e-13 7.304946e-14 -9.135867e-15
1.767173e-11 1.247821e-12 -1.756316e-13
2.980182e-10 1.914207e-11 -3.229337e-12
4.716119e-09 2.741419e-10 -5.376170e-11
6.573615e-08 3.409459e-09 -8.374873e-10
8.607968e-07 3.957364e-08 -1.144033e-08
-4.387269e-15 2.960420e-14 -1.014970e-15
4.437152e-16 4.977501e-16 -2.230248e-17
4.191410e-14 3.508393e-15 3.033270e-16
8.679430e-13 6.471793e-14 7.910195e-15
1.633778e-11 1.114225e-12 1.613722e-13
2.785125e-10 1.716675e-11 3.019681e-12
4.456363e-09 2.469839e-10 5.079271e-11
6.276834e-08 3.065811e-09 8.000302e-10
8.211209e-17 2.079614e-16 -5.722084e-16
1.148072e-15 1.174333e-16 -1.281647e-17
4.553442e-14 3.714852e-15 1.402340e-16
9.432575e-13 7.018708e-14 3.565949e-15
1.775608e-11 1.211097e-12 7.371627e-14
3.025497e-10 1.864747e-11 1.379382e-12
4.838166e-09 2.681285e-10 2.317246e-11
6.809883e-08 3.325899e-09 3.643812e-10
1.099045e-15 1.069111e-16 -2.661828e-19
4.567400e-14 3.750682e-15 5.533005e-30
9.468097e-13 7.053518e-14 1.030213e-28
1.782399e-11 1.215396e-12 -5.773225e-26
3.037015e-10 1.871834e-11 -7.043927e-24
4.856478e-09 2.691429e-10 -5.513483e-22
6.835478e-08 3.338397e-09 -2.093631e-20
9.040897e-07 3.871570e-08 4.317867e-20
1.215352e-15 5.121403e-17 -1.715548e-17
4.553355e-14 3.709048e-15 -1.408122e-16
9.432618e-13 7.018512e-14 -3.566149e-15
1.775608e-11 1.211096e-12 -7.371634e-14
3.025497e-10 1.864747e-11 -1.379382e-12
4.838166e-09 2.681285e-10 -2.317246e-11
6.809883e-08 3.325899e-09 -3.643812e-10
9.007398e-07 3.857231e-08 -5.019090e-09
1.565951e-15 -4.781697e-16 -3.196377e-17
4.193462e-14 3.355252e-15 -3.042590e-16
8.679436e-13 6.471741e-14 -7.910400e-15
1.633778e-11 1.114224e-12 -1.613719e-13
2.785125e-10 1.716675e-11 -3.019681e-12
4.456363e-09 2.469839e-10 -5.079271e-11
6.276834e-08 3.065811e-09 -8.000302e-10
8.309600e-07 3.558786e-08 -1.104381e-08
-1.445520e-13 -4.494839e-14 -9.756858e-14
-4.783720e-14 -5.095416e-15 -1.475596e-15
3.513210e-14 2.753134e-15 -3.447527e-17
7.565686e-13 5.521781e-14 6.879456e-15
1.440365e-11 9.599116e-13 1.438026e-13
2.481663e-10 1.488301e-11 2.689283e-12
4.014035e-09 2.154698e-10 4.574529e-11
5.714208e-08 2.679171e-09 7.283460e-10
2.678325e-14 2.163877e-15 -5.175192e-14
5.458015e-16 3.782986e-17 -8.064166e-16
3.903943e-14 3.155243e-15 -1.243375e-17
8.231350e-13 6.012467e-14 3.139201e-15
1.565326e-11 1.043609e-12 6.569187e-14
2.695836e-10 1.616661e-11 1.229017e-12
4.357933e-09 2.339071e-10 2.086917e-11
6.199462e-08 2.906297e-09 3.317313e-10
9.926739e-16 9.718304e-17 -9.508164e-17
3.915777e-14 3.168504e-15 -1.285386e-18
8.262078e-13 6.053232e-14 -7.563160e-21
1.571370e-11 1.047713e-12 -3.561336e-19
2.706095e-10 1.622814e-11 -3.346906e-19
4.374428e-09 2.347920e-10 -3.480754e-19
6.222762e-08 2.917208e-09 -7.753672e-19
8.320409e-07 3.394081e-08 5.561946e-19
7.978780e-15 7.935077e-16 -1.082749e-15
3.913102e-14 3.165538e-15 -2.548705e-16
8.231289e-13 6.013010e-14 -3.140489e-15
1.565327e-11 1.043608e-12 -6.570035e-14
2.695836e-10 1.616660e-11 -1.229026e-12
4.357933e-09 2.339071e-10 -2.086918e-11
6.199462e-08 2.906297e-09 -3.317313e-10
8.289581e-07 3.381529e-08 -4.618026e-09
5.177029e-14 5.419612e-15 -1.918000e-15
3.687619e-14 3.063978e-15 -4.775413e-16
7.568254e-13 5.524184e-14 -6.880143e-15
1.440366e-11 9.599120e-13 -1.437820e-13
2.481663e-10 1.488301e-11 -2.689277e-12
4.014035e-09 2.154698e-10 -4.574528e-11
5.714208e-08 2.679171e-09 -7.283460e-10
7.647415e-07 3.120152e-08 -1.016138e-08
1.352206e-13 -1.654177e-14 9.588469e-14
4.839886e-14 4.199504e-15 1.545983e-15
3.148368e-14 2.476083e-15 4.267876e-16
6.594315e-13 4.817716e-14 6.040519e-15
1.269626e-11 8.462314e-13 1.266352e-13
2.210848e-10 1.325160e-11 2.398022e-12
3.614337e-09 1.938765e-10 4.118335e-11
5.199513e-08 2.434986e-09 6.627713e-10
-2.259384e-14 -2.544306e-15 5.143974e-14
1.632262e-15 1.405897e-16 8.455977e-16
3.351182e-14 2.718266e-15 2.152656e-16
7.172111e-13 5.245079e-14 3.030777e-15
1.379879e-11 9.192872e-13 5.804184e-14
2.401632e-10 1.439463e-11 1.095536e-12
3.923978e-09 2.104642e-10 1.878874e-11
5.641035e-08 2.641389e-09 3.018616e-10
6.139199e-16 6.109330e-17 5.089791e-17
3.379283e-14 2.722483e-15 5.320262e-19
7.200467e-13 5.266563e-14 4.597264e-21
1.385135e-11 9.228658e-13 1.595897e-19
2.410778e-10 1.444901e-11 3.158332e-19
3.938829e-09 2.112605e-10 4.198240e-19
5.662235e-08 2.651304e-09 -2.455483e-19
7.652478e-07 3.116549e-08 -2.994828e-19
-2.675714e-15 -2.090341e-16 7.541864e-16
3.345785e-14 2.714827e-15 9.109667e-18
7.172182e-13 5.244896e-14 -3.026145e-15
1.379879e-11 9.192866e-13 -5.803420e-14
2.401632e-10 1.439463e-11 -1.095527e-12
3.923978e-09 2.104642e-10 -1.878873e-11
5.641035e-08 2.641389e-09 -3.018616e-10
7.624127e-07 3.105026e-08 -4.246407e-09
-4.526787e-14 -3.747137e-15 1.386539e-15
3.003334e-14 2.492196e-15 -4.572465e-19
6.592189e-13 4.815402e-14 -6.033994e-15
1.269623e-11 8.462294e-13 -1.266544e-13
2.210848e-10 1.325160e-11 -2.398027e-12
3.614337e-09 1.938765e-10 -4.118335e-11
5.199513e-08 2.434986e-09 -6.627713e-10
7.033550e-07 2.865054e-08 -9.343780e-09
3.464473e-15 3.017385e-14 1.025562e-15
9.590050e-16 5.649527e-16 2.667720e-17
2.631628e-14 2.190939e-15 1.681119e-16
5.751060e-13 4.129918e-14 5.344563e-15
1.118463e-11 7.305568e-13 1.105084e-13
1.968247e-10 1.150449e-11 2.134095e-12
3.252019e-09 1.692909e-10 3.704692e-11
-1.324718e-16 6.011601e-16 5.823741e-16
4.852358e-16 6.002647e-17 1.476160e-17
2.875237e-14 2.304340e-15 7.981000e-17
6.250793e-13 4.496996e-14 2.459929e-15
1.215554e-11 7.937174e-13 5.053733e-14
2.138086e-10 1.249558e-11 9.747991e-13
3.530601e-09 1.837685e-10 1.690115e-11
4.388507e-16 3.550442e-17 3.188901e-32
2.882345e-14 2.303280e-15 1.262328e-30
6.274979e-13 4.497391e-14 5.321321e-29
1.220194e-11 7.966619e-13 1.107069e-26
2.146227e-10 1.254340e-11 8.822471e-25
3.543963e-09 1.844634e-10 4.041694e-23
5.147915e-08 2.318560e-09 1.302397e-21
7.031885e-07 2.731619e-08 2.047983e-20
4.403384e-16 2.253701e-17 1.175015e-17
2.875106e-14 2.303854e-15 -7.943270e-17
6.250796e-13 4.497037e-14 -2.459905e-15
1.215554e-11 7.937176e-13 -5.053719e-14
2.138086e-10 1.249559e-11 -9.747988e-13
3.530601e-09 1.837685e-10 -1.690115e-11
5.128642e-08 2.309897e-09 -2.744357e-10
7.005836e-07 2.721534e-08 -3.900837e-09
-5.505054e-17 -4.277199e-16 2.259646e-17
2.629250e-14 2.057590e-15 -1.677019e-16
5.751051e-13 4.129530e-14 -5.343917e-15
1.118463e-11 7.305552e-13 -1.105083e-13
1.968247e-10 1.150449e-11 -2.134094e-12
3.252019e-09 1.692909e-10 -3.704692e-11
4.727256e-08 2.129524e-09 -6.025612e-10
6.463205e-07 2.511429e-08 -8.583528e-09
2.623457e-16 3.657019e-16 1.332935e-17
2.190824e-16 2.810650e-17 2.753046e-19
2.130267e-14 1.678854e-15 1.154154e-16
4.759131e-13 3.255013e-14 4.568527e-15
9.364027e-12 5.787554e-13 9.286057e-14
1.665654e-10 9.127305e-12 1.804063e-12
2.783016e-09 1.345317e-10 3.166491e-11
-7.482903e-18 -1.224021e-18 7.724992e-18
2.668860e-16 1.437027e-17 1.299917e-19