# vtk DataFile Version 2.0
Simplicial Mesh Example
ASCII
DATASET UNSTRUCTURED_GRID
POINTS 1302 double
0.000000e+00 1.000000e+00 5.000000e-01
-5.551115e-17 1.000000e+00 3.000000e-01
3.302130e-02 6.666667e-01 5.000000e-01
3.302130e-02 6.666667e-01 3.000000e-01
-2.000000e-01 1.000000e+00 5.000000e-01
-2.000000e-01 1.000000e+00 3.000000e-01
-1.691801e-01 6.666667e-01 5.000000e-01
-1.691801e-01 6.666667e-01 3.000000e-01
-4.000000e-01 1.000000e+00 5.000000e-01
-4.000000e-01 1.000000e+00 3.000000e-01
-3.713816e-01 6.666667e-01 5.000000e-01
-3.713816e-01 6.666667e-01 3.000000e-01
-6.000000e-01 1.000000e+00 5.000000e-01
-6.000000e-01 1.000000e+00 3.000000e-01
-5.735829e-01 6.666667e-01 5.000000e-01
-5.735829e-01 6.666667e-01 3.000000e-01
-8.000000e-01 1.000000e+00 5.000000e-01
-8.000000e-01 1.000000e+00 3.000000e-01
-7.757844e-01 6.666667e-01 5.000000e-01
-7.757844e-01 6.666667e-01 3.000000e-01
-1.000000e+00 1.000000e+00 5.000000e-01
-1.000000e+00 1.000000e+00 3.000000e-01
-9.779858e-01 6.666667e-01 5.000000e-01
-9.779858e-01 6.666667e-01 3.000000e-01
-1.200000e+00 1.000000e+00 5.000000e-01
-1.200000e+00 1.000000e+00 3.000000e-01
-1.180187e+00 6.666667e-01 5.000000e-01
-1.180187e+00 6.666667e-01 3.000000e-01
-2.000000e-01 1.000000e+00 1.000000e-01
-1.691801e-01 6.666667e-01 1.000000e-01
-4.000000e-01 1.000000e+00 1.000000e-01
-3.713816e-01 6.666667e-01 1.000000e-01
-6.000000e-01 1.000000e+00 1.000000e-01
-5.735829e-01 6.666667e-01 1.000000e-01
-8.000000e-01 1.000000e+00 1.000000e-01
-7.757844e-01 6.666667e-01 1.000000e-01
-1.000000e+00 1.000000e+00 1.000000e-01
-9.779858e-01 6.666667e-01 1.000000e-01
-1.200000e+00 1.000000e+00 1.000000e-01
-1.180187e+00 6.666667e-01 1.000000e-01
-2.000000e-01 1.000000e+00 -1.000000e-01
-1.691801e-01 6.666667e-01 -1.000000e-01
-4.000000e-01 1.000000e+00 -1.000000e-01
-3.713816e-01 6.666667e-01 -1.000000e-01
-6.000000e-01 1.000000e+00 -1.000000e-01
-5.735829e-01 6.666667e-01 -1.000000e-01
-8.000000e-01 1.000000e+00 -1.000000e-01
-7.757844e-01 6.666667e-01 -1.000000e-01
-1.000000e+00 1.000000e+00 -1.000000e-01
-9.779858e-01 6.666667e-01 -1.000000e-01
-1.200000e+00 1.000000e+00 -1.000000e-01
-1.180187e+00 6.666667e-01 -1.000000e-01
-1.400000e+00 1.000000e+00 -1.000000e-01
-1.382389e+00 6.666667e-01 -1.000000e-01
-2.000000e-01 1.000000e+00 -3.000000e-01
-1.691801e-01 6.666667e-01 -3.000000e-01
-4.000000e-01 1.000000e+00 -3.000000e-01
-3.713816e-01 6.666667e-01 -3.000000e-01
-6.000000e-01 1.000000e+00 -3.000000e-01
-5.735829e-01 6.666667e-01 -3.000000e-01
-8.000000e-01 1.000000e+00 -3.000000e-01
-7.757844e-01 6.666667e-01 -3.000000e-01
-1.000000e+00 1.000000e+00 -3.000000e-01
-9.779858e-01 6.666667e-01 -3.000000e-01
-1.200000e+00 1.000000e+00 -3.000000e-01
-1.180187e+00 6.666667e-01 -3.000000e-01
-1.400000e+00 1.000000e+00 -3.000000e-01
-1.382389e+00 6.666667e-01 -3.000000e-01
-2.000000e-01 1.000000e+00 -5.000000e-01
-1.691801e-01 6.666667e-01 -5.000000e-01
-4.000000e-01 1.000000e+00 -5.000000e-01
-3.713816e-01 6.666667e-01 -5.000000e-01
-6.000000e-01 1.000000e+00 -5.000000e-01
-5.735829e-01 6.666667e-01 -5.000000e-01
-8.000000e-01 1.000000e+00 -5.000000e-01
-7.757844e-01 6.666667e-01 -5.000000e-01
-1.000000e+00 1.000000e+00 -5.000000e-01
-9.779858e-01 6.666667e-01 -5.000000e-01
-1.200000e+00 1.000000e+00 -5.000000e-01
-1.180187e+00 6.666667e-01 -5.000000e-01
-1.400000e+00 1.000000e+00 -5.000000e-01
-1.382389e+00 6.666667e-01 -5.000000e-01
6.604260e-02 3.333333e-01 5.000000e-01
6.604260e-02 3.333333e-01 3.000000e-01
-1.383602e-01 3.333333e-01 5.000000e-01
-1.383602e-01 3.333333e-01 3.000000e-01
-3.427631e-01 3.333333e-01 5.000000e-01
-3.427631e-01 3.333333e-01 3.000000e-01
-5.471659e-01 3.333333e-01 5.000000e-01
-5.471659e-01 3.333333e-01 3.000000e-01
-7.515687e-01 3.333333e-01 5.000000e-01
-7.515687e-01 3.333333e-01 3.000000e-01
-9.559716e-01 3.333333e-01 5.000000e-01
-9.559716e-01 3.333333e-01 3.000000e-01
-1.160374e+00 3.333333e-01 5.000000e-01
-1.160374e+00 3.333333e-01 3.000000e-01
-1.383602e-01 3.333333e-01 1.000000e-01
-3.427631e-01 3.333333e-01 1.000000e-01
-5.471659e-01 3.333333e-01 1.000000e-01
-7.515687e-01 3.333333e-01 1.000000e-01
-9.559716e-01 3.333333e-01 1.000000e-01
-1.160374e+00 3.333333e-01 1.000000e-01
-1.383602e-01 3.333333e-01 -1.000000e-01
-3.427631e-01 3.333333e-01 -1.000000e-01
-5.471659e-01 3.333333e-01 -1.000000e-01
-7.515687e-01 3.333333e-01 -1.000000e-01
-9.559716e-01 3.333333e-01 -1.000000e-01
-1.160374e+00 3.333333e-01 -1.000000e-01
-1.364777e+00 3.333333e-01 -1.000000e-01
-1.383602e-01 3.333333e-01 -3.000000e-01
-3.427631e-01 3.333333e-01 -3.000000e-01
-5.471659e-01 3.333333e-01 -3.000000e-01
-7.515687e-01 3.333333e-01 -3.000000e-01
-9.559716e-01 3.333333e-01 -3.000000e-01
-1.160374e+00 3.333333e-01 -3.000000e-01
-1.364777e+00 3.333333e-01 -3.000000e-01
-1.383602e-01 3.333333e-01 -5.000000e-01
-3.427631e-01 3.333333e-01 -5.000000e-01
-5.471659e-01 3.333333e-01 -5.000000e-01
-7.515687e-01 3.333333e-01 -5.000000e-01
-9.559716e-01 3.333333e-01 -5.000000e-01
-1.160374e+00 3.333333e-01 -5.000000e-01
-1.364777e+00 3.333333e-01 -5.000000e-01
9.906390e-02 -2.775558e-17 5.000000e-01
9.906390e-02 -5.551115e-17 3.000000e-01
-1.075404e-01 0.000000e+00 5.000000e-01
-1.075404e-01 0.000000e+00 3.000000e-01
-3.141446e-01 0.000000e+00 5.000000e-01
-3.141446e-01 0.000000e+00 3.000000e-01
-5.207489e-01 0.000000e+00 5.000000e-01
-5.207489e-01 0.000000e+00 3.000000e-01
-7.273532e-01 -5.551115e-17 5.000000e-01
-7.273532e-01 0.000000e+00 3.000000e-01
-9.339574e-01 0.000000e+00 5.000000e-01
-9.339574e-01 0.000000e+00 3.000000e-01
-1.140562e+00 0.000000e+00 5.000000e-01
-1.140562e+00 0.000000e+00 3.000000e-01
-1.075404e-01 -2.775558e-17 1.000000e-01
-3.141446e-01 0.000000e+00 1.000000e-01
-5.207489e-01 -2.775558e-17 1.000000e-01
-7.273532e-01 0.000000e+00 1.000000e-01
-9.339574e-01 0.000000e+00 1.000000e-01
-1.140562e+00 -2.775558e-17 1.000000e-01
-1.075404e-01 0.000000e+00 -1.000000e-01
-3.141446e-01 0.000000e+00 -1.000000e-01
-5.207489e-01 -2.775558e-17 -1.000000e-01
-7.273532e-01 0.000000e+00 -1.000000e-01
-9.339574e-01 0.000000e+00 -1.000000e-01
-1.140562e+00 -2.775558e-17 -1.000000e-01
-1.347166e+00 0.000000e+00 -1.000000e-01
-1.075404e-01 -2.775558e-17 -3.000000e-01
-3.141446e-01 0.000000e+00 -3.000000e-01
-5.207489e-01 0.000000e+00 -3.000000e-01
-7.273532e-01 -2.775558e-17 -3.000000e-01
-9.339574e-01 -2.775558e-17 -3.000000e-01
-1.140562e+00 -2.775558e-17 -3.000000e-01
-1.347166e+00 -5.551115e-17 -3.000000e-01
-1.075404e-01 0.000000e+00 -5.000000e-01
-3.141446e-01 0.000000e+00 -5.000000e-01
-5.207489e-01 0.000000e+00 -5.000000e-01
-7.273532e-01 0.000000e+00 -5.000000e-01
-9.339574e-01 0.000000e+00 -5.000000e-01
-1.140562e+00 0.000000e+00 -5.000000e-01
-1.347166e+00 -5.551115e-17 -5.000000e-01
1.320852e-01 -3.333333e-01 5.000000e-01
1.320852e-01 -3.333333e-01 3.000000e-01
-7.672048e-02 -3.333333e-01 5.000000e-01
-7.672048e-02 -3.333333e-01 3.000000e-01
-2.855262e-01 -3.333333e-01 5.000000e-01
-2.855262e-01 -3.333333e-01 3.000000e-01
-4.943318e-01 -3.333333e-01 5.000000e-01
-4.943318e-01 -3.333333e-01 3.000000e-01
-7.031375e-01 -3.333333e-01 5.000000e-01
-7.031375e-01 -3.333333e-01 3.000000e-01
-9.119432e-01 -3.333333e-01 5.000000e-01
-9.119432e-01 -3.333333e-01 3.000000e-01
-7.672048e-02 -3.333333e-01 1.000000e-01
-2.855262e-01 -3.333333e-01 1.000000e-01
-4.943318e-01 -3.333333e-01 1.000000e-01
-7.031375e-01 -3.333333e-01 1.000000e-01
-9.119432e-01 -3.333333e-01 1.000000e-01
-7.672048e-02 -3.333333e-01 -1.000000e-01
-2.855262e-01 -3.333333e-01 -1.000000e-01
-4.943318e-01 -3.333333e-01 -1.000000e-01
-7.031375e-01 -3.333333e-01 -1.000000e-01
-9.119432e-01 -3.333333e-01 -1.000000e-01
-1.120749e+00 -3.333333e-01 -1.000000e-01
-1.329555e+00 -3.333333e-01 -1.000000e-01
-7.672048e-02 -3.333333e-01 -3.000000e-01
-2.855262e-01 -3.333333e-01 -3.000000e-01
-4.943318e-01 -3.333333e-01 -3.000000e-01
-7.031375e-01 -3.333333e-01 -3.000000e-01
-9.119432e-01 -3.333333e-01 -3.000000e-01
-1.120749e+00 -3.333333e-01 -3.000000e-01
-1.329555e+00 -3.333333e-01 -3.000000e-01
-7.672048e-02 -3.333333e-01 -5.000000e-01
-2.855262e-01 -3.333333e-01 -5.000000e-01
-4.943318e-01 -3.333333e-01 -5.000000e-01
-7.031375e-01 -3.333333e-01 -5.000000e-01
-9.119432e-01 -3.333333e-01 -5.000000e-01
-1.120749e+00 -3.333333e-01 -5.000000e-01
-1.329555e+00 -3.333333e-01 -5.000000e-01
1.651065e-01 -6.666667e-01 5.000000e-01
1.651065e-01 -6.666667e-01 3.000000e-01
-4.590059e-02 -6.666667e-01 5.000000e-01
-4.590059e-02 -6.666667e-01 3.000000e-01
-2.569077e-01 -6.666667e-01 5.000000e-01
-2.569077e-01 -6.666667e-01 3.000000e-01
-4.679148e-01 -6.666667e-01 5.000000e-01
-4.679148e-01 -6.666667e-01 3.000000e-01
-6.789219e-01 -6.666667e-01 5.000000e-01
-6.789219e-01 -6.666667e-01 3.000000e-01
-8.899290e-01 -6.666667e-01 5.000000e-01
-8.899290e-01 -6.666667e-01 3.000000e-01
-4.590059e-02 -6.666667e-01 1.000000e-01
-2.569077e-01 -6.666667e-01 1.000000e-01
-4.679148e-01 -6.666667e-01 1.000000e-01
-6.789219e-01 -6.666667e-01 1.000000e-01
-8.899290e-01 -6.666667e-01 1.000000e-01
-4.590059e-02 -6.666667e-01 -1.000000e-01
-2.569077e-01 -6.666667e-01 -1.000000e-01
-4.679148e-01 -6.666667e-01 -1.000000e-01
-6.789219e-01 -6.666667e-01 -1.000000e-01
-8.899290e-01 -6.666667e-01 -1.000000e-01
-1.100936e+00 -6.666667e-01 -1.000000e-01
-1.311943e+00 -6.666667e-01 -1.000000e-01
-4.590059e-02 -6.666667e-01 -3.000000e-01
-2.569077e-01 -6.666667e-01 -3.000000e-01
-4.679148e-01 -6.666667e-01 -3.000000e-01
-6.789219e-01 -6.666667e-01 -3.000000e-01
-8.899290e-01 -6.666667e-01 -3.000000e-01
-1.100936e+00 -6.666667e-01 -3.000000e-01
-1.311943e+00 -6.666667e-01 -3.000000e-01
-4.590059e-02 -6.666667e-01 -5.000000e-01
-2.569077e-01 -6.666667e-01 -5.000000e-01
-4.679148e-01 -6.666667e-01 -5.000000e-01
-6.789219e-01 -6.666667e-01 -5.000000e-01
-8.899290e-01 -6.666667e-01 -5.000000e-01
-1.100936e+00 -6.666667e-01 -5.000000e-01
-1.311943e+00 -6.666667e-01 -5.000000e-01
1.981278e-01 -1.000000e+00 5.000000e-01
1.981278e-01 -1.000000e+00 3.000000e-01
[...]
CELL_DATA 900
SCALARS Density double 1
LOOKUP_TABLE default
1.000000e+00
1.000000e+00
1.000000e+00
1.000000e+00
1.000000e+00
1.000000e+00
1.000000e+00
1.000000e+00
1.000000e+00
1.000000e+00
1.000000e+00
1.000000e+00
1.000000e+00
1.000000e+00
1.000000e+00
1.000000e+00
1.000000e+00
1.000000e+00
1.000000e+00
1.000000e+00
1.000000e+00
1.000000e+00
1.000000e+00
1.000000e+00
1.000000e+00
1.000000e+00
1.000000e+00
1.000000e+00
1.000000e+00
1.000000e+00
1.000000e+00
1.000000e+00
1.000000e+00
1.000000e+00
1.000000e+00
1.000000e+00
1.000000e+00
1.000000e+00
1.000000e+00
1.000000e+00
1.000000e+00
1.000000e+00
1.000000e+00
1.000000e+00
1.000000e+00
1.000000e+00
1.000000e+00
1.000000e+00
1.000000e+00
1.000000e+00
1.000000e+00
1.000000e+00
1.000000e+00
1.000000e+00
1.000000e+00
1.000000e+00
1.000000e+00
1.000000e+00
1.000000e+00
1.000000e+00
1.000000e+00
1.000000e+00
1.000000e+00
1.000000e+00
1.000000e+00
1.000000e+00
1.000000e+00
1.000000e+00
1.000000e+00
1.000000e+00
1.000000e+00
1.000000e+00
1.000000e+00
1.000000e+00
1.000000e+00
1.000000e+00
1.000000e+00
1.000000e+00
1.000000e+00
1.000000e+00
1.000000e+00
1.000000e+00
1.000000e+00
1.000000e+00
1.000000e+00
1.000000e+00
1.000000e+00
1.000000e+00
1.000000e+00
1.000000e+00
1.000000e+00
1.000000e+00
1.000000e+00
1.000000e+00
1.000000e+00
1.000000e+00
1.000000e+00
1.000000e+00
1.000000e+00
1.000000e+00
1.000000e+00
1.000000e+00
1.000000e+00
1.000000e+00
1.000000e+00
1.000000e+00
1.000000e+00
1.000000e+00
1.000000e+00
1.000000e+00
1.000000e+00
1.000000e+00
1.000000e+00
1.000000e+00
1.000000e+00
1.000000e+00
1.000000e+00
1.000000e+00
1.000000e+00
1.000000e+00
1.000000e+00
1.000000e+00
1.000000e+00
1.000000e+00
1.000000e+00
1.000000e+00
1.000000e+00
1.000000e+00
1.000000e+00
1.000000e+00
1.000000e+00
1.000000e+00
1.000000e+00
1.000000e+00
1.000000e+00
1.000000e+00
1.000000e+00
1.000000e+00
1.000000e+00
1.000000e+00
1.000000e+00
1.000000e+00
1.000000e+00
1.000000e+00
1.000000e+00
1.000000e+00
1.000000e+00
1.000000e+00
1.000000e+00
1.000000e+00
1.000000e+00
1.000000e+00
1.000000e+00
1.000000e+00
1.000000e+00
1.000000e+00
1.000000e+00
1.000000e+00
1.000000e+00
1.000000e+00
1.000000e+00
1.000000e+00
1.000000e+00
1.000000e+00
1.000000e+00
1.000000e+00
1.000000e+00
1.000000e+00
1.000000e+00
1.000000e+00
1.000000e+00
1.000000e+00
1.000000e+00
1.000000e+00
1.000000e+00
1.000000e+00
1.000000e+00
1.000000e+00
1.000000e+00
1.000000e+00
1.000000e+00
1.000000e+00
1.000000e+00
1.000000e+00
1.000000e+00
1.000000e+00
1.000000e+00
1.000000e+00
1.000000e+00
1.000000e+00
1.000000e+00
1.000000e+00
1.000000e+00
1.000000e+00
1.000000e+00
1.000000e+00
1.000000e+00
1.000000e+00
1.000000e+00
1.000000e+00
1.000000e+00
1.000000e+00
1.000000e+00
1.000000e+00
1.000000e+00
1.000000e+00
1.000000e+00
1.000000e+00
1.000000e+00
1.000000e+00
1.000000e+00
1.000000e+00
1.000000e+00
1.000000e+00
1.000000e+00
1.000000e+00
1.000000e+00
1.000000e+00
1.000000e+00
1.000000e+00
1.000000e+00
1.000000e+00
1.000000e+00
1.000000e+00
1.000000e+00
1.000000e+00
1.000000e+00
1.000000e+00
1.000000e+00
1.000000e+00
1.000000e+00
1.000000e+00
1.000000e+00
1.000000e+00
1.000000e+00
1.000000e+00
1.000000e+00
1.000004e+00
1.000035e+00
1.000285e+00
1.001793e+00
1.010098e+00
1.039074e+00
1.106141e+00
1.000000e+00
1.000004e+00
1.000038e+00
1.000309e+00
1.001938e+00
1.010854e+00
1.041622e+00
1.110507e+00
1.000004e+00
1.000038e+00
1.000311e+00
1.001946e+00
1.010895e+00
1.041756e+00
1.110718e+00
1.000004e+00
1.000038e+00
1.000309e+00
1.001938e+00
1.010854e+00
1.041622e+00
1.110507e+00
1.000004e+00
1.000035e+00
1.000285e+00
1.001793e+00
1.010098e+00
1.039074e+00
1.106141e+00
1.000000e+00
1.000004e+00
1.000034e+00
1.000285e+00
1.001805e+00
1.010259e+00
1.039871e+00
1.108235e+00
1.000000e+00
1.000004e+00
1.000037e+00
1.000309e+00
1.001951e+00
1.011030e+00
1.042483e+00
1.112737e+00
1.000004e+00
1.000037e+00
1.000310e+00
1.001959e+00
1.011071e+00
1.042622e+00
1.112955e+00
1.000004e+00
1.000037e+00
1.000309e+00
1.001951e+00
1.011030e+00
1.042483e+00
1.112737e+00
1.000004e+00
1.000034e+00
1.000285e+00
1.001805e+00
1.010259e+00
1.039871e+00
1.108235e+00
1.000000e+00
1.000004e+00
1.000032e+00
1.000271e+00
1.001733e+00
1.009968e+00
1.039110e+00
1.107572e+00
1.000000e+00
1.000004e+00
1.000035e+00
1.000294e+00
1.001874e+00
1.010717e+00
1.041675e+00
1.112057e+00
1.000004e+00
1.000035e+00
1.000295e+00
1.001881e+00
1.010757e+00
1.041811e+00
1.112275e+00
1.000004e+00
1.000035e+00
1.000294e+00
1.001874e+00
1.010717e+00
1.041675e+00
1.112057e+00
1.000004e+00
1.000032e+00
1.000271e+00
1.001733e+00
1.009968e+00
1.039110e+00
1.107572e+00
1.000000e+00
1.000003e+00
1.000030e+00
1.000257e+00
1.001662e+00
1.009670e+00
1.038305e+00
1.106794e+00
1.000000e+00
1.000004e+00
1.000033e+00
1.000279e+00
1.001797e+00
1.010397e+00
1.040818e+00
1.111254e+00
1.000004e+00
1.000033e+00
1.000280e+00
1.001804e+00
1.010436e+00
1.040952e+00
1.111472e+00
1.000004e+00
1.000033e+00
1.000279e+00
1.001797e+00
1.010397e+00
1.040818e+00
1.111254e+00
1.000003e+00
1.000030e+00
1.000257e+00
1.001662e+00
1.009670e+00
1.038305e+00
1.106794e+00
1.000000e+00
1.000000e+00
1.000003e+00
1.000028e+00
1.000244e+00
1.001591e+00
1.009366e+00
1.037455e+00
1.105900e+00
1.000000e+00
1.000000e+00
1.000003e+00
1.000031e+00
1.000264e+00
1.001720e+00
1.010069e+00
1.039913e+00
1.110328e+00
1.000003e+00
1.000031e+00
1.000265e+00
1.001727e+00
1.010107e+00
1.040044e+00
1.110545e+00
1.000003e+00
1.000031e+00
1.000264e+00
1.001720e+00
1.010069e+00
1.039913e+00
1.110328e+00
1.000003e+00
1.000028e+00
1.000244e+00
1.001591e+00
1.009366e+00
1.037455e+00
1.105900e+00
1.000000e+00
1.000000e+00
1.000003e+00
1.000025e+00
1.000220e+00
1.001451e+00
1.008673e+00
1.035206e+00
1.102379e+00
1.000000e+00
1.000000e+00
1.000003e+00
1.000027e+00
1.000238e+00
1.001568e+00
1.009322e+00
1.037508e+00
1.106628e+00
1.000003e+00
1.000027e+00
1.000239e+00
1.001574e+00
1.009357e+00
1.037630e+00
1.106837e+00
1.000003e+00
1.000027e+00
1.000238e+00
1.001568e+00
1.009322e+00
1.037508e+00
1.106628e+00
1.000003e+00
1.000025e+00
1.000220e+00
1.001451e+00
1.008673e+00
1.035206e+00
1.102379e+00
1.000000e+00
1.000000e+00
1.000000e+00
1.000000e+00
1.000000e+00
1.000000e+00
1.000000e+00
1.000000e+00
1.000000e+00
1.000000e+00
1.000000e+00
1.000000e+00
1.000000e+00
1.000000e+00
1.000000e+00
1.000000e+00
1.000000e+00
1.000000e+00
1.000000e+00
1.000000e+00
1.000000e+00
1.000000e+00
1.000000e+00
1.000000e+00
1.000000e+00
1.000000e+00
1.000000e+00
1.000000e+00
1.000000e+00
1.000000e+00
1.000000e+00
1.000000e+00
1.000000e+00
1.000000e+00
1.000000e+00
1.000000e+00
1.000000e+00
1.000000e+00
1.000000e+00
1.000000e+00
1.000000e+00
1.000000e+00
1.000000e+00
1.000000e+00
1.000000e+00
1.000000e+00
1.000000e+00
1.000000e+00
1.000000e+00
1.000000e+00
1.000000e+00
1.000000e+00
1.000000e+00
1.000000e+00
1.000000e+00
1.000000e+00
1.000000e+00
1.000000e+00
1.000000e+00
1.000000e+00
1.000000e+00
1.000000e+00
1.000000e+00
1.000000e+00
1.000000e+00
1.000000e+00
1.000000e+00
1.000000e+00
1.000000e+00
1.000000e+00
1.000000e+00
1.000000e+00
1.000000e+00
1.000000e+00
1.000000e+00
1.000000e+00
1.000000e+00
1.000000e+00
1.000000e+00
1.000000e+00
1.000000e+00
1.000000e+00
1.000000e+00
1.000000e+00
1.000000e+00
1.000000e+00
1.000000e+00
1.000000e+00
1.000000e+00
1.000000e+00
1.000000e+00
1.000000e+00
1.000000e+00
1.000000e+00
1.000000e+00
1.000000e+00
1.000000e+00
1.000000e+00
1.000000e+00
1.000000e+00
1.000000e+00
1.000000e+00
1.000000e+00
1.000000e+00
1.000000e+00
1.000000e+00
1.000000e+00
1.000000e+00
1.000000e+00
1.000000e+00
1.000000e+00
1.000000e+00
1.000000e+00
1.000000e+00
1.000000e+00
1.000000e+00
1.000000e+00
1.000000e+00
1.000000e+00
1.000000e+00
1.000000e+00
1.000000e+00
1.000000e+00
1.000000e+00
1.000000e+00
1.000000e+00
1.000000e+00
1.000000e+00
1.000000e+00
1.000000e+00
1.000000e+00
1.000000e+00
1.000000e+00
1.000000e+00
1.000000e+00
1.000000e+00
1.000000e+00
1.000000e+00
1.000000e+00
1.000000e+00
1.000000e+00
1.000000e+00
1.000000e+00
1.000000e+00
1.000000e+00
1.000000e+00
1.000000e+00
1.000000e+00
1.000000e+00
1.000000e+00
1.000000e+00
1.000000e+00
1.000000e+00
1.000000e+00
1.000000e+00
1.000000e+00
1.000000e+00
1.000000e+00
1.000000e+00
1.000000e+00
1.000000e+00
1.000000e+00
1.000000e+00
1.000000e+00
1.000000e+00
1.000000e+00
1.000000e+00
1.000000e+00
1.000000e+00
1.000000e+00
1.000000e+00
1.000000e+00
1.000000e+00
1.000000e+00
1.000000e+00
1.000000e+00
1.000000e+00
1.000000e+00
1.000000e+00
1.000000e+00
1.000000e+00
1.000000e+00
1.000000e+00
1.000000e+00
1.000000e+00
1.000000e+00
1.000000e+00
1.000000e+00
1.000000e+00
1.000000e+00
1.000000e+00
1.000000e+00
1.000000e+00
1.000000e+00
1.000000e+00
1.000000e+00
1.000000e+00
1.000000e+00
1.000000e+00
1.000000e+00
1.000000e+00
1.000000e+00
1.000000e+00
1.000000e+00
1.000000e+00
1.000000e+00
1.000000e+00
1.000000e+00
1.000000e+00
1.000000e+00
1.000000e+00
1.000000e+00
1.000000e+00
1.000000e+00
1.000000e+00
1.000000e+00
1.000000e+00
1.000000e+00
1.000000e+00
1.000000e+00
1.000000e+00
1.000000e+00
1.000000e+00
1.000000e+00
1.000000e+00
1.000000e+00
1.000000e+00
1.000000e+00
1.000000e+00
1.000000e+00
1.000000e+00
1.000000e+00
1.000000e+00
1.000000e+00
1.000000e+00
1.000000e+00
1.000000e+00
1.000000e+00
1.000000e+00
1.000000e+00
1.000000e+00
1.000000e+00
1.000000e+00
1.000000e+00
1.000000e+00
1.000000e+00
1.000000e+00
1.000000e+00
1.000000e+00
1.000000e+00
1.000000e+00
1.000000e+00
1.000000e+00
1.000000e+00
1.000000e+00
1.000000e+00
1.000000e+00
1.000000e+00
1.000000e+00
1.000000e+00
1.000000e+00
1.000000e+00
1.000000e+00
1.000000e+00
1.000000e+00
1.000000e+00
1.000000e+00
1.000000e+00
1.000000e+00
1.000000e+00
1.000000e+00
1.000000e+00
1.000000e+00
1.000000e+00
1.000000e+00
1.000000e+00
1.000000e+00
1.000000e+00
1.000000e+00
1.000000e+00
1.000000e+00
1.000000e+00
1.000000e+00
1.000000e+00
1.000000e+00
1.000000e+00
1.000000e+00
1.000000e+00
1.000000e+00
1.000000e+00
1.000000e+00
1.000000e+00
1.000000e+00
1.000000e+00
1.000000e+00
1.000000e+00
1.000000e+00
1.000000e+00
1.000000e+00
1.000000e+00
1.000000e+00
1.000000e+00
1.000000e+00
1.000000e+00
1.000000e+00
1.000000e+00
1.000000e+00
1.000000e+00
1.000000e+00
1.000000e+00
1.000000e+00
1.000000e+00
1.000000e+00
1.000000e+00
1.000000e+00
1.000000e+00
1.000000e+00
1.000000e+00
1.000000e+00
1.000000e+00
1.000000e+00
1.000000e+00
1.000000e+00
1.000000e+00
1.000000e+00
1.000000e+00
1.000000e+00
1.000000e+00
1.000000e+00
1.000000e+00
1.000000e+00
1.000000e+00
1.000000e+00
1.000000e+00
1.000000e+00
1.000000e+00
1.000000e+00
1.000000e+00
1.000000e+00
1.000000e+00
1.000000e+00
1.000000e+00
1.000000e+00
1.000000e+00
1.000000e+00
1.000000e+00
1.000000e+00
1.000000e+00
1.000000e+00
1.000000e+00
1.000000e+00
1.000000e+00
1.000000e+00
1.000000e+00
1.000000e+00
1.000000e+00
1.000000e+00
1.000000e+00
1.000000e+00
1.000000e+00
1.000000e+00
1.000000e+00
1.000000e+00
1.000000e+00
1.000000e+00
1.000000e+00
1.000000e+00
1.000000e+00
1.000000e+00
1.000000e+00
1.000000e+00
1.000000e+00
1.000000e+00
1.000000e+00
1.000000e+00
1.000000e+00
1.000000e+00
1.000000e+00
1.000000e+00
1.000000e+00
1.000000e+00
1.000000e+00
1.000000e+00
1.000000e+00
1.000000e+00
1.000000e+00
1.000000e+00
1.000000e+00
1.000000e+00
1.000000e+00
1.000000e+00
1.000000e+00
1.000000e+00
1.000000e+00
1.000000e+00
1.000000e+00
1.000000e+00
1.000000e+00
1.000000e+00
1.000000e+00
1.000000e+00
1.000000e+00
1.000000e+00
1.000000e+00
1.000000e+00
1.000000e+00
1.000000e+00
1.000000e+00
1.000000e+00
1.000000e+00
1.000000e+00
1.000000e+00
1.000000e+00
1.000000e+00
1.000000e+00
1.000000e+00
1.000000e+00
1.000000e+00
1.000000e+00
1.000000e+00
1.000000e+00
1.000000e+00
1.000000e+00
1.000000e+00
1.000000e+00
1.000000e+00
1.000000e+00
1.000000e+00
1.000000e+00
1.000000e+00
1.000000e+00
1.000000e+00
1.000000e+00
1.000000e+00
1.000000e+00
1.000000e+00
1.000000e+00
1.000000e+00
VECTORS Momentum double
-3.844924e-16 5.382889e-16 -5.061995e-17
6.595783e-15 6.270341e-16 3.432628e-17
1.582048e-13 1.313663e-14 1.579363e-15
2.895911e-12 2.222244e-13 3.225773e-14
4.930547e-11 3.474902e-12 5.739299e-13
7.615267e-10 4.886365e-11 9.657505e-12
1.102971e-08 6.410393e-10 1.471395e-10
1.409403e-07 7.320551e-09 2.096961e-09
4.494183e-17 5.223599e-18 1.500113e-17
7.339009e-15 6.945102e-16 -2.103950e-17
1.735801e-13 1.441054e-14 7.170072e-16
3.169851e-12 2.427750e-13 1.478208e-14
5.394317e-11 3.800842e-12 2.674080e-13
8.327309e-10 5.343234e-11 4.485208e-12
1.205317e-08 7.005049e-10 6.824435e-11
1.538988e-07 7.993458e-09 9.711622e-10
7.359140e-15 6.733377e-16 1.260412e-17
1.741097e-13 1.445734e-14 -8.351401e-30
3.184761e-12 2.441250e-13 2.206491e-28
5.418561e-11 3.816996e-12 4.270815e-26
8.364370e-10 5.366886e-11 -2.255838e-26
1.210648e-08 7.036054e-10 -4.009572e-25
1.545744e-07 8.028573e-09 1.479593e-22
1.850573e-06 8.534869e-08 4.172417e-20
7.340341e-15 7.047298e-16 -1.677861e-17
1.735798e-13 1.441082e-14 -7.176676e-16
3.169851e-12 2.427751e-13 -1.478208e-14
5.394317e-11 3.800844e-12 -2.674078e-13
8.327309e-10 5.343234e-11 -4.485208e-12
1.205317e-08 7.005049e-10 -6.824435e-11
1.538988e-07 7.993458e-09 -9.711622e-10
1.842576e-06 8.497936e-08 -1.213405e-08
6.625248e-15 6.040247e-16 -9.124531e-18
1.581991e-13 1.313555e-14 -1.580134e-15
2.895911e-12 2.222269e-13 -3.225844e-14
4.930547e-11 3.474901e-12 -5.739300e-13
7.615267e-10 4.886365e-11 -9.657506e-12
1.102971e-08 6.410393e-10 -1.471395e-10
1.409403e-07 7.320551e-09 -2.096961e-09
1.689069e-06 7.790040e-08 -2.625041e-08
-6.354251e-15 4.376187e-14 -1.703317e-15
4.914793e-15 1.308660e-15 -3.797594e-17
1.437461e-13 1.185530e-14 1.418589e-15
2.660474e-12 1.970441e-13 2.887441e-14
4.579543e-11 3.102742e-12 5.316570e-13
7.149571e-10 4.377118e-11 9.069665e-12
1.047012e-08 5.763100e-10 1.396502e-10
1.351918e-07 6.557358e-09 2.012377e-09
1.366018e-16 3.687902e-16 -9.592122e-16
6.483898e-15 6.226725e-16 -2.230189e-17
1.572703e-13 1.266474e-14 6.461291e-16
2.911531e-12 2.153779e-13 1.335404e-14
5.010523e-11 3.394756e-12 2.469305e-13
7.818259e-10 4.786223e-11 4.211398e-12
1.144198e-08 6.297584e-10 6.477453e-11
1.476271e-07 7.159834e-09 9.320468e-10
6.450343e-15 6.051207e-16 -2.408159e-18
1.579310e-13 1.277134e-14 -2.217576e-20
2.924475e-12 2.165736e-13 2.152124e-28
5.032934e-11 3.409527e-12 -1.396686e-25
7.853084e-10 4.807521e-11 -1.249565e-23
1.149263e-08 6.325450e-10 -7.230504e-22
1.482757e-07 7.191282e-09 -2.039029e-20
1.794655e-06 7.631890e-08 4.229256e-20
6.625473e-15 4.984691e-16 -3.658125e-17
1.572718e-13 1.265588e-14 -6.499993e-16
2.911535e-12 2.153760e-13 -1.335422e-14
5.010523e-11 3.394755e-12 -2.469306e-13
7.818259e-10 4.786222e-11 -4.211398e-12
1.144198e-08 6.297583e-10 -6.477453e-11
1.476271e-07 7.159834e-09 -9.320468e-10
1.786891e-06 7.598887e-08 -1.176798e-08
6.752923e-15 -6.738731e-16 -6.761140e-17
1.437930e-13 1.136174e-14 -1.425045e-15
2.660477e-12 1.970327e-13 -2.887474e-14
4.579543e-11 3.102742e-12 -5.316570e-13
7.149571e-10 4.377118e-11 -9.069665e-12
1.047012e-08 5.763100e-10 -1.396502e-10
1.351918e-07 6.557358e-09 -2.012377e-09
1.637947e-06 6.966338e-08 -2.545638e-08
-1.864444e-13 -6.322315e-14 -1.446868e-13
-6.681399e-14 -7.240454e-15 -2.749154e-15
1.222908e-13 9.450189e-15 2.968892e-16
2.320674e-12 1.677100e-13 2.510670e-14
4.039166e-11 2.662645e-12 4.706682e-13
6.373611e-10 3.775829e-11 8.083355e-12
9.435462e-09 4.997861e-10 1.258294e-10
1.231329e-07 5.686380e-09 1.832923e-09
3.956187e-14 2.410552e-15 -7.688472e-14
4.746719e-15 4.172931e-16 -1.494471e-15
1.353286e-13 1.070388e-14 1.415819e-16
2.541031e-12 1.837500e-13 1.180405e-14
4.419189e-11 2.913675e-12 2.187659e-13
6.969709e-10 4.128628e-11 3.754131e-12
1.031126e-08 5.461107e-10 5.836319e-11
1.344586e-07 6.208378e-09 8.489286e-10
5.635723e-15 5.308617e-16 -2.063976e-16
1.360617e-13 1.078734e-14 -7.379342e-18
2.552422e-12 1.848578e-13 -3.376229e-20
4.439013e-11 2.926858e-12 -5.108775e-19
7.000747e-10 4.147008e-11 -4.233974e-19
1.035690e-08 5.485258e-10 -3.745042e-19
1.350493e-07 6.235615e-09 -8.959487e-19
1.652444e-06 6.628044e-08 5.514162e-19
1.784939e-14 1.767474e-15 -2.261049e-15
1.355281e-13 1.073988e-14 -9.904453e-16
2.541030e-12 1.837559e-13 -1.182353e-14
4.419190e-11 2.913674e-12 -2.187747e-13
6.969709e-10 4.128628e-11 -3.754140e-12
1.031126e-08 5.461107e-10 -5.836320e-11
1.344586e-07 6.208378e-09 -8.489286e-10
1.645296e-06 6.599434e-08 -1.083257e-08
7.927724e-14 8.368821e-15 -3.989292e-15
1.257534e-13 1.020857e-14 -1.920629e-15
2.321487e-12 1.678170e-13 -2.514234e-14
4.039169e-11 2.662647e-12 -4.706467e-13
6.373611e-10 3.775829e-11 -8.083348e-12
9.435462e-09 4.997861e-10 -1.258294e-10
1.231329e-07 5.686380e-09 -1.832923e-09
1.508160e-06 6.050750e-08 -2.343305e-08
1.739581e-13 -2.715482e-14 1.381759e-13
7.370425e-14 6.228084e-15 2.506717e-15
1.076504e-13 8.306312e-15 1.664861e-15
2.024167e-12 1.463217e-13 2.214782e-14
3.561191e-11 2.346609e-12 4.152619e-13
5.679205e-10 3.361170e-11 7.205272e-12
8.497644e-09 4.495376e-10 1.133054e-10
1.120637e-07 5.165187e-09 1.668204e-09
-3.454121e-14 -3.942888e-15 7.552298e-14
7.080635e-15 6.428194e-16 1.379068e-15
1.166688e-13 9.268590e-15 8.335820e-16
2.215848e-12 1.603023e-13 1.072304e-14
3.896353e-11 2.566755e-12 1.931399e-13
6.210322e-10 3.675227e-11 3.345800e-12
9.286357e-09 4.912002e-10 5.255482e-11
1.223705e-07 5.639275e-09 7.726310e-10
4.321168e-15 4.081429e-16 1.320509e-16
1.174673e-13 9.292298e-15 2.676850e-17
2.225859e-12 1.609594e-13 2.944860e-19
3.913743e-11 2.578220e-12 2.937890e-19
6.237986e-10 3.691549e-11 3.830792e-19
9.327457e-09 4.933724e-10 4.581973e-19
1.229081e-07 5.664011e-09 -2.459913e-19
1.520091e-06 6.081465e-08 -2.973115e-19
-3.599174e-15 -2.533135e-16 1.290416e-15
1.165379e-13 9.261256e-15 -1.247286e-16
2.215831e-12 1.602985e-13 -1.065724e-14
3.896352e-11 2.566754e-12 -1.931319e-13
6.210322e-10 3.675227e-11 -3.345791e-12
9.286357e-09 4.912002e-10 -5.255482e-11
1.223705e-07 5.639275e-09 -7.726310e-10
1.513516e-06 6.055221e-08 -9.962517e-09
-6.377103e-14 -4.856559e-15 2.314529e-15
1.052956e-13 8.579488e-15 -3.534748e-16
2.023496e-12 1.462720e-13 -2.202204e-14
3.561182e-11 2.346602e-12 -4.152817e-13
5.679205e-10 3.361170e-11 -7.205278e-12
8.497644e-09 4.495376e-10 -1.133054e-10
1.120637e-07 5.165187e-09 -1.668204e-09
1.387373e-06 5.551876e-08 -2.155118e-08
4.995249e-15 4.410939e-14 1.668122e-15
4.123600e-15 1.153754e-15 5.223700e-17
9.154775e-14 7.368332e-15 8.399933e-16
1.764621e-12 1.249342e-13 1.938304e-14
3.136770e-11 2.016635e-12 3.637887e-13
5.055214e-10 2.902202e-11 6.412267e-12
7.644665e-09 3.900061e-10 1.019092e-10
-2.146505e-16 1.660435e-15 9.492510e-16
3.631353e-15 3.675063e-16 2.881942e-17
1.003927e-13 7.836080e-15 3.838794e-16
1.931058e-12 1.368093e-13 9.054164e-15
3.431934e-11 2.205849e-12 1.690490e-13
5.527953e-10 3.173167e-11 2.977571e-12
8.354155e-09 4.261300e-10 4.726811e-11
3.573266e-15 3.253234e-16 9.971249e-19
1.008246e-13 7.853147e-15 6.654594e-20
1.939751e-12 1.371549e-13 -2.115193e-29
3.447289e-11 2.215686e-12 1.650036e-26
5.552574e-10 3.187328e-11 1.351638e-24
8.391126e-09 4.280130e-10 5.212418e-23
1.117267e-07 4.911791e-09 1.474057e-21
1.396619e-06 5.275326e-08 1.992113e-20
3.530500e-15 2.765679e-16 2.139873e-17
1.003899e-13 7.819782e-15 -3.807393e-16
1.931059e-12 1.368092e-13 -9.053940e-15
3.431934e-11 2.205849e-12 -1.690488e-13
5.527953e-10 3.173168e-11 -2.977571e-12
8.354155e-09 4.261300e-10 -4.726811e-11
1.112381e-07 4.890365e-09 -7.023090e-10
1.390579e-06 5.252605e-08 -9.150030e-09
2.459154e-15 -4.944169e-16 3.992160e-17
9.150343e-14 6.947304e-15 -8.346713e-16
1.764618e-12 1.248937e-13 -1.938231e-14
3.136770e-11 2.016634e-12 -3.637888e-13
5.055214e-10 2.902202e-11 -6.412267e-12
7.644665e-09 3.900061e-10 -1.019092e-10
1.018697e-07 4.479597e-09 -1.516390e-09
1.274696e-06 4.816569e-08 -1.979395e-08
4.523493e-16 5.933753e-16 2.587390e-17
2.415336e-15 2.368263e-16 3.138472e-18
7.433989e-14 5.551949e-15 6.469754e-16
1.454249e-12 9.724586e-14 1.617125e-14
2.614484e-11 1.575418e-12 3.037428e-13
4.259278e-10 2.265555e-11 5.397801e-12
6.513939e-09 3.043569e-10 8.671817e-11
4.929390e-18 9.128809e-18 1.496094e-17
2.691556e-15 2.377343e-16 1.458948e-18