# vtk DataFile Version 2.0
Simplicial Mesh Example
ASCII
DATASET UNSTRUCTURED_GRID
POINTS 1302 double
0.000000e+00 1.000000e+00 5.000000e-01
-5.551115e-17 1.000000e+00 3.000000e-01
3.302130e-02 6.666667e-01 5.000000e-01
3.302130e-02 6.666667e-01 3.000000e-01
-2.000000e-01 1.000000e+00 5.000000e-01
-2.000000e-01 1.000000e+00 3.000000e-01
-1.691801e-01 6.666667e-01 5.000000e-01
-1.691801e-01 6.666667e-01 3.000000e-01
-4.000000e-01 1.000000e+00 5.000000e-01
-4.000000e-01 1.000000e+00 3.000000e-01
-3.713816e-01 6.666667e-01 5.000000e-01
-3.713816e-01 6.666667e-01 3.000000e-01
-6.000000e-01 1.000000e+00 5.000000e-01
-6.000000e-01 1.000000e+00 3.000000e-01
-5.735829e-01 6.666667e-01 5.000000e-01
-5.735829e-01 6.666667e-01 3.000000e-01
-8.000000e-01 1.000000e+00 5.000000e-01
-8.000000e-01 1.000000e+00 3.000000e-01
-7.757844e-01 6.666667e-01 5.000000e-01
-7.757844e-01 6.666667e-01 3.000000e-01
-1.000000e+00 1.000000e+00 5.000000e-01
-1.000000e+00 1.000000e+00 3.000000e-01
-9.779858e-01 6.666667e-01 5.000000e-01
-9.779858e-01 6.666667e-01 3.000000e-01
-1.200000e+00 1.000000e+00 5.000000e-01
-1.200000e+00 1.000000e+00 3.000000e-01
-1.180187e+00 6.666667e-01 5.000000e-01
-1.180187e+00 6.666667e-01 3.000000e-01
-2.000000e-01 1.000000e+00 1.000000e-01
-1.691801e-01 6.666667e-01 1.000000e-01
-4.000000e-01 1.000000e+00 1.000000e-01
-3.713816e-01 6.666667e-01 1.000000e-01
-6.000000e-01 1.000000e+00 1.000000e-01
-5.735829e-01 6.666667e-01 1.000000e-01
-8.000000e-01 1.000000e+00 1.000000e-01
-7.757844e-01 6.666667e-01 1.000000e-01
-1.000000e+00 1.000000e+00 1.000000e-01
-9.779858e-01 6.666667e-01 1.000000e-01
-1.200000e+00 1.000000e+00 1.000000e-01
-1.180187e+00 6.666667e-01 1.000000e-01
-2.000000e-01 1.000000e+00 -1.000000e-01
-1.691801e-01 6.666667e-01 -1.000000e-01
-4.000000e-01 1.000000e+00 -1.000000e-01
-3.713816e-01 6.666667e-01 -1.000000e-01
-6.000000e-01 1.000000e+00 -1.000000e-01
-5.735829e-01 6.666667e-01 -1.000000e-01
-8.000000e-01 1.000000e+00 -1.000000e-01
-7.757844e-01 6.666667e-01 -1.000000e-01
-1.000000e+00 1.000000e+00 -1.000000e-01
-9.779858e-01 6.666667e-01 -1.000000e-01
-1.200000e+00 1.000000e+00 -1.000000e-01
-1.180187e+00 6.666667e-01 -1.000000e-01
-1.400000e+00 1.000000e+00 -1.000000e-01
-1.382389e+00 6.666667e-01 -1.000000e-01
-2.000000e-01 1.000000e+00 -3.000000e-01
-1.691801e-01 6.666667e-01 -3.000000e-01
-4.000000e-01 1.000000e+00 -3.000000e-01
-3.713816e-01 6.666667e-01 -3.000000e-01
-6.000000e-01 1.000000e+00 -3.000000e-01
-5.735829e-01 6.666667e-01 -3.000000e-01
-8.000000e-01 1.000000e+00 -3.000000e-01
-7.757844e-01 6.666667e-01 -3.000000e-01
-1.000000e+00 1.000000e+00 -3.000000e-01
-9.779858e-01 6.666667e-01 -3.000000e-01
-1.200000e+00 1.000000e+00 -3.000000e-01
-1.180187e+00 6.666667e-01 -3.000000e-01
-1.400000e+00 1.000000e+00 -3.000000e-01
-1.382389e+00 6.666667e-01 -3.000000e-01
-2.000000e-01 1.000000e+00 -5.000000e-01
-1.691801e-01 6.666667e-01 -5.000000e-01
-4.000000e-01 1.000000e+00 -5.000000e-01
-3.713816e-01 6.666667e-01 -5.000000e-01
-6.000000e-01 1.000000e+00 -5.000000e-01
-5.735829e-01 6.666667e-01 -5.000000e-01
-8.000000e-01 1.000000e+00 -5.000000e-01
-7.757844e-01 6.666667e-01 -5.000000e-01
-1.000000e+00 1.000000e+00 -5.000000e-01
-9.779858e-01 6.666667e-01 -5.000000e-01
-1.200000e+00 1.000000e+00 -5.000000e-01
-1.180187e+00 6.666667e-01 -5.000000e-01
-1.400000e+00 1.000000e+00 -5.000000e-01
-1.382389e+00 6.666667e-01 -5.000000e-01
6.604260e-02 3.333333e-01 5.000000e-01
6.604260e-02 3.333333e-01 3.000000e-01
-1.383602e-01 3.333333e-01 5.000000e-01
-1.383602e-01 3.333333e-01 3.000000e-01
-3.427631e-01 3.333333e-01 5.000000e-01
-3.427631e-01 3.333333e-01 3.000000e-01
-5.471659e-01 3.333333e-01 5.000000e-01
-5.471659e-01 3.333333e-01 3.000000e-01
-7.515687e-01 3.333333e-01 5.000000e-01
-7.515687e-01 3.333333e-01 3.000000e-01
-9.559716e-01 3.333333e-01 5.000000e-01
-9.559716e-01 3.333333e-01 3.000000e-01
-1.160374e+00 3.333333e-01 5.000000e-01
-1.160374e+00 3.333333e-01 3.000000e-01
-1.383602e-01 3.333333e-01 1.000000e-01
-3.427631e-01 3.333333e-01 1.000000e-01
-5.471659e-01 3.333333e-01 1.000000e-01
-7.515687e-01 3.333333e-01 1.000000e-01
-9.559716e-01 3.333333e-01 1.000000e-01
-1.160374e+00 3.333333e-01 1.000000e-01
-1.383602e-01 3.333333e-01 -1.000000e-01
-3.427631e-01 3.333333e-01 -1.000000e-01
-5.471659e-01 3.333333e-01 -1.000000e-01
-7.515687e-01 3.333333e-01 -1.000000e-01
-9.559716e-01 3.333333e-01 -1.000000e-01
-1.160374e+00 3.333333e-01 -1.000000e-01
-1.364777e+00 3.333333e-01 -1.000000e-01
-1.383602e-01 3.333333e-01 -3.000000e-01
-3.427631e-01 3.333333e-01 -3.000000e-01
-5.471659e-01 3.333333e-01 -3.000000e-01
-7.515687e-01 3.333333e-01 -3.000000e-01
-9.559716e-01 3.333333e-01 -3.000000e-01
-1.160374e+00 3.333333e-01 -3.000000e-01
-1.364777e+00 3.333333e-01 -3.000000e-01
-1.383602e-01 3.333333e-01 -5.000000e-01
-3.427631e-01 3.333333e-01 -5.000000e-01
-5.471659e-01 3.333333e-01 -5.000000e-01
-7.515687e-01 3.333333e-01 -5.000000e-01
-9.559716e-01 3.333333e-01 -5.000000e-01
-1.160374e+00 3.333333e-01 -5.000000e-01
-1.364777e+00 3.333333e-01 -5.000000e-01
9.906390e-02 -2.775558e-17 5.000000e-01
9.906390e-02 -5.551115e-17 3.000000e-01
-1.075404e-01 0.000000e+00 5.000000e-01
-1.075404e-01 0.000000e+00 3.000000e-01
-3.141446e-01 0.000000e+00 5.000000e-01
-3.141446e-01 0.000000e+00 3.000000e-01
-5.207489e-01 0.000000e+00 5.000000e-01
-5.207489e-01 0.000000e+00 3.000000e-01
-7.273532e-01 -5.551115e-17 5.000000e-01
-7.273532e-01 0.000000e+00 3.000000e-01
-9.339574e-01 0.000000e+00 5.000000e-01
-9.339574e-01 0.000000e+00 3.000000e-01
-1.140562e+00 0.000000e+00 5.000000e-01
-1.140562e+00 0.000000e+00 3.000000e-01
-1.075404e-01 -2.775558e-17 1.000000e-01
-3.141446e-01 0.000000e+00 1.000000e-01
-5.207489e-01 -2.775558e-17 1.000000e-01
-7.273532e-01 0.000000e+00 1.000000e-01
-9.339574e-01 0.000000e+00 1.000000e-01
-1.140562e+00 -2.775558e-17 1.000000e-01
-1.075404e-01 0.000000e+00 -1.000000e-01
-3.141446e-01 0.000000e+00 -1.000000e-01
-5.207489e-01 -2.775558e-17 -1.000000e-01
-7.273532e-01 0.000000e+00 -1.000000e-01
-9.339574e-01 0.000000e+00 -1.000000e-01
-1.140562e+00 -2.775558e-17 -1.000000e-01
-1.347166e+00 0.000000e+00 -1.000000e-01
-1.075404e-01 -2.775558e-17 -3.000000e-01
-3.141446e-01 0.000000e+00 -3.000000e-01
-5.207489e-01 0.000000e+00 -3.000000e-01
-7.273532e-01 -2.775558e-17 -3.000000e-01
-9.339574e-01 -2.775558e-17 -3.000000e-01
-1.140562e+00 -2.775558e-17 -3.000000e-01
-1.347166e+00 -5.551115e-17 -3.000000e-01
-1.075404e-01 0.000000e+00 -5.000000e-01
-3.141446e-01 0.000000e+00 -5.000000e-01
-5.207489e-01 0.000000e+00 -5.000000e-01
-7.273532e-01 0.000000e+00 -5.000000e-01
-9.339574e-01 0.000000e+00 -5.000000e-01
-1.140562e+00 0.000000e+00 -5.000000e-01
-1.347166e+00 -5.551115e-17 -5.000000e-01
1.320852e-01 -3.333333e-01 5.000000e-01
1.320852e-01 -3.333333e-01 3.000000e-01
-7.672048e-02 -3.333333e-01 5.000000e-01
-7.672048e-02 -3.333333e-01 3.000000e-01
-2.855262e-01 -3.333333e-01 5.000000e-01
-2.855262e-01 -3.333333e-01 3.000000e-01
-4.943318e-01 -3.333333e-01 5.000000e-01
-4.943318e-01 -3.333333e-01 3.000000e-01
-7.031375e-01 -3.333333e-01 5.000000e-01
-7.031375e-01 -3.333333e-01 3.000000e-01
-9.119432e-01 -3.333333e-01 5.000000e-01
-9.119432e-01 -3.333333e-01 3.000000e-01
-7.672048e-02 -3.333333e-01 1.000000e-01
-2.855262e-01 -3.333333e-01 1.000000e-01
-4.943318e-01 -3.333333e-01 1.000000e-01
-7.031375e-01 -3.333333e-01 1.000000e-01
-9.119432e-01 -3.333333e-01 1.000000e-01
-7.672048e-02 -3.333333e-01 -1.000000e-01
-2.855262e-01 -3.333333e-01 -1.000000e-01
-4.943318e-01 -3.333333e-01 -1.000000e-01
-7.031375e-01 -3.333333e-01 -1.000000e-01
-9.119432e-01 -3.333333e-01 -1.000000e-01
-1.120749e+00 -3.333333e-01 -1.000000e-01
-1.329555e+00 -3.333333e-01 -1.000000e-01
-7.672048e-02 -3.333333e-01 -3.000000e-01
-2.855262e-01 -3.333333e-01 -3.000000e-01
-4.943318e-01 -3.333333e-01 -3.000000e-01
-7.031375e-01 -3.333333e-01 -3.000000e-01
-9.119432e-01 -3.333333e-01 -3.000000e-01
-1.120749e+00 -3.333333e-01 -3.000000e-01
-1.329555e+00 -3.333333e-01 -3.000000e-01
-7.672048e-02 -3.333333e-01 -5.000000e-01
-2.855262e-01 -3.333333e-01 -5.000000e-01
-4.943318e-01 -3.333333e-01 -5.000000e-01
-7.031375e-01 -3.333333e-01 -5.000000e-01
-9.119432e-01 -3.333333e-01 -5.000000e-01
-1.120749e+00 -3.333333e-01 -5.000000e-01
-1.329555e+00 -3.333333e-01 -5.000000e-01
1.651065e-01 -6.666667e-01 5.000000e-01
1.651065e-01 -6.666667e-01 3.000000e-01
-4.590059e-02 -6.666667e-01 5.000000e-01
-4.590059e-02 -6.666667e-01 3.000000e-01
-2.569077e-01 -6.666667e-01 5.000000e-01
-2.569077e-01 -6.666667e-01 3.000000e-01
-4.679148e-01 -6.666667e-01 5.000000e-01
-4.679148e-01 -6.666667e-01 3.000000e-01
-6.789219e-01 -6.666667e-01 5.000000e-01
-6.789219e-01 -6.666667e-01 3.000000e-01
-8.899290e-01 -6.666667e-01 5.000000e-01
-8.899290e-01 -6.666667e-01 3.000000e-01
-4.590059e-02 -6.666667e-01 1.000000e-01
-2.569077e-01 -6.666667e-01 1.000000e-01
-4.679148e-01 -6.666667e-01 1.000000e-01
-6.789219e-01 -6.666667e-01 1.000000e-01
-8.899290e-01 -6.666667e-01 1.000000e-01
-4.590059e-02 -6.666667e-01 -1.000000e-01
-2.569077e-01 -6.666667e-01 -1.000000e-01
-4.679148e-01 -6.666667e-01 -1.000000e-01
-6.789219e-01 -6.666667e-01 -1.000000e-01
-8.899290e-01 -6.666667e-01 -1.000000e-01
-1.100936e+00 -6.666667e-01 -1.000000e-01
-1.311943e+00 -6.666667e-01 -1.000000e-01
-4.590059e-02 -6.666667e-01 -3.000000e-01
-2.569077e-01 -6.666667e-01 -3.000000e-01
-4.679148e-01 -6.666667e-01 -3.000000e-01
-6.789219e-01 -6.666667e-01 -3.000000e-01
-8.899290e-01 -6.666667e-01 -3.000000e-01
-1.100936e+00 -6.666667e-01 -3.000000e-01
-1.311943e+00 -6.666667e-01 -3.000000e-01
-4.590059e-02 -6.666667e-01 -5.000000e-01
-2.569077e-01 -6.666667e-01 -5.000000e-01
-4.679148e-01 -6.666667e-01 -5.000000e-01
-6.789219e-01 -6.666667e-01 -5.000000e-01
-8.899290e-01 -6.666667e-01 -5.000000e-01
-1.100936e+00 -6.666667e-01 -5.000000e-01
-1.311943e+00 -6.666667e-01 -5.000000e-01
1.981278e-01 -1.000000e+00 5.000000e-01
1.981278e-01 -1.000000e+00 3.000000e-01
[...]
CELL_DATA 900
SCALARS Density double 1
LOOKUP_TABLE default
1.000000e+00
1.000000e+00
1.000000e+00
1.000000e+00
1.000000e+00
1.000000e+00
1.000000e+00
1.000000e+00
1.000000e+00
1.000000e+00
1.000000e+00
1.000000e+00
1.000000e+00
1.000000e+00
1.000000e+00
1.000000e+00
1.000000e+00
1.000000e+00
1.000000e+00
1.000000e+00
1.000000e+00
1.000000e+00
1.000000e+00
1.000000e+00
1.000000e+00
1.000000e+00
1.000000e+00
1.000000e+00
1.000000e+00
1.000000e+00
1.000000e+00
1.000000e+00
1.000000e+00
1.000000e+00
1.000000e+00
1.000000e+00
1.000000e+00
1.000000e+00
1.000000e+00
1.000000e+00
1.000000e+00
1.000000e+00
1.000000e+00
1.000000e+00
1.000000e+00
1.000000e+00
1.000000e+00
1.000000e+00
1.000000e+00
1.000000e+00
1.000000e+00
1.000000e+00
1.000000e+00
1.000000e+00
1.000000e+00
1.000000e+00
1.000000e+00
1.000000e+00
1.000000e+00
1.000000e+00
1.000000e+00
1.000000e+00
1.000000e+00
1.000000e+00
1.000000e+00
1.000000e+00
1.000000e+00
1.000000e+00
1.000000e+00
1.000000e+00
1.000000e+00
1.000000e+00
1.000000e+00
1.000000e+00
1.000000e+00
1.000000e+00
1.000000e+00
1.000000e+00
1.000000e+00
1.000000e+00
1.000000e+00
1.000000e+00
1.000000e+00
1.000000e+00
1.000000e+00
1.000000e+00
1.000000e+00
1.000000e+00
1.000000e+00
1.000000e+00
1.000000e+00
1.000000e+00
1.000000e+00
1.000000e+00
1.000000e+00
1.000000e+00
1.000000e+00
1.000000e+00
1.000000e+00
1.000000e+00
1.000000e+00
1.000000e+00
1.000000e+00
1.000000e+00
1.000000e+00
1.000000e+00
1.000000e+00
1.000000e+00
1.000000e+00
1.000000e+00
1.000000e+00
1.000000e+00
1.000000e+00
1.000000e+00
1.000000e+00
1.000000e+00
1.000000e+00
1.000000e+00
1.000000e+00
1.000000e+00
1.000000e+00
1.000000e+00
1.000000e+00
1.000000e+00
1.000000e+00
1.000000e+00
1.000000e+00
1.000000e+00
1.000000e+00
1.000000e+00
1.000000e+00
1.000000e+00
1.000000e+00
1.000000e+00
1.000000e+00
1.000000e+00
1.000000e+00
1.000000e+00
1.000000e+00
1.000000e+00
1.000000e+00
1.000000e+00
1.000000e+00
1.000000e+00
1.000000e+00
1.000000e+00
1.000000e+00
1.000000e+00
1.000000e+00
1.000000e+00
1.000000e+00
1.000000e+00
1.000000e+00
1.000000e+00
1.000000e+00
1.000000e+00
1.000000e+00
1.000000e+00
1.000000e+00
1.000000e+00
1.000000e+00
1.000000e+00
1.000000e+00
1.000000e+00
1.000000e+00
1.000000e+00
1.000000e+00
1.000000e+00
1.000000e+00
1.000000e+00
1.000000e+00
1.000000e+00
1.000000e+00
1.000000e+00
1.000000e+00
1.000000e+00
1.000000e+00
1.000000e+00
1.000000e+00
1.000000e+00
1.000000e+00
1.000000e+00
1.000000e+00
1.000000e+00
1.000000e+00
1.000000e+00
1.000000e+00
1.000000e+00
1.000000e+00
1.000000e+00
1.000000e+00
1.000000e+00
1.000000e+00
1.000000e+00
1.000000e+00
1.000000e+00
1.000000e+00
1.000000e+00
1.000000e+00
1.000000e+00
1.000000e+00
1.000000e+00
1.000000e+00
1.000000e+00
1.000000e+00
1.000000e+00
1.000000e+00
1.000000e+00
1.000000e+00
1.000000e+00
1.000000e+00
1.000000e+00
1.000000e+00
1.000000e+00
1.000000e+00
1.000000e+00
1.000000e+00
1.000000e+00
1.000000e+00
1.000000e+00
1.000000e+00
1.000000e+00
1.000000e+00
1.000000e+00
1.000000e+00
1.000000e+00
1.000000e+00
1.000000e+00
1.000000e+00
1.000000e+00
1.000000e+00
1.000000e+00
1.000000e+00
1.000000e+00
1.000000e+00
1.000000e+00
1.000000e+00
1.000000e+00
1.000000e+00
1.000000e+00
1.000000e+00
1.000007e+00
1.000256e+00
1.012148e+00
1.000000e+00
1.000000e+00
1.000000e+00
1.000000e+00
1.000000e+00
1.000007e+00
1.000257e+00
1.012203e+00
1.000000e+00
1.000000e+00
1.000000e+00
1.000000e+00
1.000007e+00
1.000257e+00
1.012204e+00
1.000000e+00
1.000000e+00
1.000000e+00
1.000000e+00
1.000007e+00
1.000257e+00
1.012203e+00
1.000000e+00
1.000000e+00
1.000000e+00
1.000000e+00
1.000007e+00
1.000256e+00
1.012148e+00
1.000000e+00
1.000000e+00
1.000000e+00
1.000000e+00
1.000000e+00
1.000007e+00
1.000251e+00
1.012052e+00
1.000000e+00
1.000000e+00
1.000000e+00
1.000000e+00
1.000000e+00
1.000007e+00
1.000252e+00
1.012106e+00
1.000000e+00
1.000000e+00
1.000000e+00
1.000000e+00
1.000007e+00
1.000252e+00
1.012107e+00
1.000000e+00
1.000000e+00
1.000000e+00
1.000000e+00
1.000007e+00
1.000252e+00
1.012106e+00
1.000000e+00
1.000000e+00
1.000000e+00
1.000000e+00
1.000007e+00
1.000251e+00
1.012052e+00
1.000000e+00
1.000000e+00
1.000000e+00
1.000000e+00
1.000000e+00
1.000006e+00
1.000245e+00
1.011925e+00
1.000000e+00
1.000000e+00
1.000000e+00
1.000000e+00
1.000000e+00
1.000006e+00
1.000247e+00
1.011979e+00
1.000000e+00
1.000000e+00
1.000000e+00
1.000000e+00
1.000006e+00
1.000247e+00
1.011979e+00
1.000000e+00
1.000000e+00
1.000000e+00
1.000000e+00
1.000006e+00
1.000247e+00
1.011979e+00
1.000000e+00
1.000000e+00
1.000000e+00
1.000000e+00
1.000006e+00
1.000245e+00
1.011925e+00
1.000000e+00
1.000000e+00
1.000000e+00
1.000000e+00
1.000000e+00
1.000006e+00
1.000240e+00
1.011801e+00
1.000000e+00
1.000000e+00
1.000000e+00
1.000000e+00
1.000000e+00
1.000006e+00
1.000242e+00
1.011854e+00
1.000000e+00
1.000000e+00
1.000000e+00
1.000000e+00
1.000006e+00
1.000242e+00
1.011854e+00
1.000000e+00
1.000000e+00
1.000000e+00
1.000000e+00
1.000006e+00
1.000242e+00
1.011854e+00
1.000000e+00
1.000000e+00
1.000000e+00
1.000000e+00
1.000006e+00
1.000240e+00
1.011801e+00
1.000000e+00
1.000000e+00
1.000000e+00
1.000000e+00
1.000000e+00
1.000000e+00
1.000006e+00
1.000235e+00
1.011679e+00
1.000000e+00
1.000000e+00
1.000000e+00
1.000000e+00
1.000000e+00
1.000000e+00
1.000006e+00
1.000237e+00
1.011732e+00
1.000000e+00
1.000000e+00
1.000000e+00
1.000000e+00
1.000006e+00
1.000237e+00
1.011732e+00
1.000000e+00
1.000000e+00
1.000000e+00
1.000000e+00
1.000006e+00
1.000237e+00
1.011732e+00
1.000000e+00
1.000000e+00
1.000000e+00
1.000000e+00
1.000006e+00
1.000235e+00
1.011679e+00
1.000000e+00
1.000000e+00
1.000000e+00
1.000000e+00
1.000000e+00
1.000000e+00
1.000006e+00
1.000229e+00
1.011528e+00
1.000000e+00
1.000000e+00
1.000000e+00
1.000000e+00
1.000000e+00
1.000000e+00
1.000006e+00
1.000231e+00
1.011580e+00
1.000000e+00
1.000000e+00
1.000000e+00
1.000000e+00
1.000006e+00
1.000231e+00
1.011581e+00
1.000000e+00
1.000000e+00
1.000000e+00
1.000000e+00
1.000006e+00
1.000231e+00
1.011580e+00
1.000000e+00
1.000000e+00
1.000000e+00
1.000000e+00
1.000006e+00
1.000229e+00
1.011528e+00
1.000000e+00
1.000000e+00
1.000000e+00
1.000000e+00
1.000000e+00
1.000000e+00
1.000000e+00
1.000000e+00
1.000000e+00
1.000000e+00
1.000000e+00
1.000000e+00
1.000000e+00
1.000000e+00
1.000000e+00
1.000000e+00
1.000000e+00
1.000000e+00
1.000000e+00
1.000000e+00
1.000000e+00
1.000000e+00
1.000000e+00
1.000000e+00
1.000000e+00
1.000000e+00
1.000000e+00
1.000000e+00
1.000000e+00
1.000000e+00
1.000000e+00
1.000000e+00
1.000000e+00
1.000000e+00
1.000000e+00
1.000000e+00
1.000000e+00
1.000000e+00
1.000000e+00
1.000000e+00
1.000000e+00
1.000000e+00
1.000000e+00
1.000000e+00
1.000000e+00
1.000000e+00
1.000000e+00
1.000000e+00
1.000000e+00
1.000000e+00
1.000000e+00
1.000000e+00
1.000000e+00
1.000000e+00
1.000000e+00
1.000000e+00
1.000000e+00
1.000000e+00
1.000000e+00
1.000000e+00
1.000000e+00
1.000000e+00
1.000000e+00
1.000000e+00
1.000000e+00
1.000000e+00
1.000000e+00
1.000000e+00
1.000000e+00
1.000000e+00
1.000000e+00
1.000000e+00
1.000000e+00
1.000000e+00
1.000000e+00
1.000000e+00
1.000000e+00
1.000000e+00
1.000000e+00
1.000000e+00
1.000000e+00
1.000000e+00
1.000000e+00
1.000000e+00
1.000000e+00
1.000000e+00
1.000000e+00
1.000000e+00
1.000000e+00
1.000000e+00
1.000000e+00
1.000000e+00
1.000000e+00
1.000000e+00
1.000000e+00
1.000000e+00
1.000000e+00
1.000000e+00
1.000000e+00
1.000000e+00
1.000000e+00
1.000000e+00
1.000000e+00
1.000000e+00
1.000000e+00
1.000000e+00
1.000000e+00
1.000000e+00
1.000000e+00
1.000000e+00
1.000000e+00
1.000000e+00
1.000000e+00
1.000000e+00
1.000000e+00
1.000000e+00
1.000000e+00
1.000000e+00
1.000000e+00
1.000000e+00
1.000000e+00
1.000000e+00
1.000000e+00
1.000000e+00
1.000000e+00
1.000000e+00
1.000000e+00
1.000000e+00
1.000000e+00
1.000000e+00
1.000000e+00
1.000000e+00
1.000000e+00
1.000000e+00
1.000000e+00
1.000000e+00
1.000000e+00
1.000000e+00
1.000000e+00
1.000000e+00
1.000000e+00
1.000000e+00
1.000000e+00
1.000000e+00
1.000000e+00
1.000000e+00
1.000000e+00
1.000000e+00
1.000000e+00
1.000000e+00
1.000000e+00
1.000000e+00
1.000000e+00
1.000000e+00
1.000000e+00
1.000000e+00
1.000000e+00
1.000000e+00
1.000000e+00
1.000000e+00
1.000000e+00
1.000000e+00
1.000000e+00
1.000000e+00
1.000000e+00
1.000000e+00
1.000000e+00
1.000000e+00
1.000000e+00
1.000000e+00
1.000000e+00
1.000000e+00
1.000000e+00
1.000000e+00
1.000000e+00
1.000000e+00
1.000000e+00
1.000000e+00
1.000000e+00
1.000000e+00
1.000000e+00
1.000000e+00
1.000000e+00
1.000000e+00
1.000000e+00
1.000000e+00
1.000000e+00
1.000000e+00
1.000000e+00
1.000000e+00
1.000000e+00
1.000000e+00
1.000000e+00
1.000000e+00
1.000000e+00
1.000000e+00
1.000000e+00
1.000000e+00
1.000000e+00
1.000000e+00
1.000000e+00
1.000000e+00
1.000000e+00
1.000000e+00
1.000000e+00
1.000000e+00
1.000000e+00
1.000000e+00
1.000000e+00
1.000000e+00
1.000000e+00
1.000000e+00
1.000000e+00
1.000000e+00
1.000000e+00
1.000000e+00
1.000000e+00
1.000000e+00
1.000000e+00
1.000000e+00
1.000000e+00
1.000000e+00
1.000000e+00
1.000000e+00
1.000000e+00
1.000000e+00
1.000000e+00
1.000000e+00
1.000000e+00
1.000000e+00
1.000000e+00
1.000000e+00
1.000000e+00
1.000000e+00
1.000000e+00
1.000000e+00
1.000000e+00
1.000000e+00
1.000000e+00
1.000000e+00
1.000000e+00
1.000000e+00
1.000000e+00
1.000000e+00
1.000000e+00
1.000000e+00
1.000000e+00
1.000000e+00
1.000000e+00
1.000000e+00
1.000000e+00
1.000000e+00
1.000000e+00
1.000000e+00
1.000000e+00
1.000000e+00
1.000000e+00
1.000000e+00
1.000000e+00
1.000000e+00
1.000000e+00
1.000000e+00
1.000000e+00
1.000000e+00
1.000000e+00
1.000000e+00
1.000000e+00
1.000000e+00
1.000000e+00
1.000000e+00
1.000000e+00
1.000000e+00
1.000000e+00
1.000000e+00
1.000000e+00
1.000000e+00
1.000000e+00
1.000000e+00
1.000000e+00
1.000000e+00
1.000000e+00
1.000000e+00
1.000000e+00
1.000000e+00
1.000000e+00
1.000000e+00
1.000000e+00
1.000000e+00
1.000000e+00
1.000000e+00
1.000000e+00
1.000000e+00
1.000000e+00
1.000000e+00
1.000000e+00
1.000000e+00
1.000000e+00
1.000000e+00
1.000000e+00
1.000000e+00
1.000000e+00
1.000000e+00
1.000000e+00
1.000000e+00
1.000000e+00
1.000000e+00
1.000000e+00
1.000000e+00
1.000000e+00
1.000000e+00
1.000000e+00
1.000000e+00
1.000000e+00
1.000000e+00
1.000000e+00
1.000000e+00
1.000000e+00
1.000000e+00
1.000000e+00
1.000000e+00
1.000000e+00
1.000000e+00
1.000000e+00
1.000000e+00
1.000000e+00
1.000000e+00
1.000000e+00
1.000000e+00
1.000000e+00
1.000000e+00
1.000000e+00
1.000000e+00
1.000000e+00
1.000000e+00
1.000000e+00
1.000000e+00
1.000000e+00
1.000000e+00
1.000000e+00
1.000000e+00
1.000000e+00
1.000000e+00
1.000000e+00
1.000000e+00
1.000000e+00
1.000000e+00
1.000000e+00
1.000000e+00
1.000000e+00
1.000000e+00
1.000000e+00
1.000000e+00
1.000000e+00
1.000000e+00
1.000000e+00
1.000000e+00
1.000000e+00
1.000000e+00
1.000000e+00
1.000000e+00
1.000000e+00
1.000000e+00
1.000000e+00
1.000000e+00
1.000000e+00
1.000000e+00
1.000000e+00
1.000000e+00
1.000000e+00
1.000000e+00
1.000000e+00
1.000000e+00
1.000000e+00
1.000000e+00
1.000000e+00
1.000000e+00
1.000000e+00
1.000000e+00
1.000000e+00
1.000000e+00
1.000000e+00
1.000000e+00
1.000000e+00
1.000000e+00
1.000000e+00
1.000000e+00
1.000000e+00
1.000000e+00
1.000000e+00
1.000000e+00
1.000000e+00
1.000000e+00
1.000000e+00
1.000000e+00
1.000000e+00
1.000000e+00
1.000000e+00
1.000000e+00
1.000000e+00
1.000000e+00
1.000000e+00
1.000000e+00
1.000000e+00
1.000000e+00
1.000000e+00
1.000000e+00
1.000000e+00
1.000000e+00
1.000000e+00
1.000000e+00
1.000000e+00
1.000000e+00
1.000000e+00
1.000000e+00
1.000000e+00
1.000000e+00
1.000000e+00
1.000000e+00
1.000000e+00
1.000000e+00
1.000000e+00
1.000000e+00
1.000000e+00
1.000000e+00
1.000000e+00
1.000000e+00
1.000000e+00
1.000000e+00
1.000000e+00
1.000000e+00
1.000000e+00
1.000000e+00
1.000000e+00
1.000000e+00
1.000000e+00
1.000000e+00
1.000000e+00
1.000000e+00
VECTORS Momentum double
0.000000e+00 2.081668e-18 -2.737648e-18
0.000000e+00 -6.938894e-19 2.210311e-18
-1.110223e-18 0.000000e+00 1.591933e-39
0.000000e+00 -1.526557e-18 4.145978e-36
1.110223e-18 1.110223e-18 9.560809e-33
0.000000e+00 8.326673e-19 1.953189e-29
2.220446e-18 2.775558e-19 3.568676e-26
-2.967355e-19 3.629528e-19 5.927149e-23
1.110223e-18 -6.938894e-19 2.737648e-18
-1.110223e-18 5.551115e-19 -2.210311e-18
3.330669e-18 5.551115e-19 4.484092e-41
0.000000e+00 1.249001e-18 1.051691e-37
-2.220446e-18 2.775558e-19 2.283012e-34
0.000000e+00 9.714451e-19 5.072694e-31
1.110223e-18 -5.551115e-19 1.334985e-27
5.032335e-18 -7.003422e-20 3.911627e-24
0.000000e+00 -1.665335e-18 1.105156e-18
3.330669e-18 1.110223e-18 -1.575509e-49
0.000000e+00 4.163336e-19 -3.885661e-46
-3.330669e-18 -1.387779e-18 -8.304384e-43
0.000000e+00 -9.714451e-19 -1.534362e-39
3.330669e-18 6.245005e-19 -2.444953e-36
-2.406159e-18 9.763510e-19 -3.391590e-33
2.995829e-15 1.451997e-16 -3.941575e-30
-1.110223e-18 1.665335e-18 -1.105156e-18
3.330669e-18 5.551115e-19 -4.484092e-41
0.000000e+00 1.249001e-18 -1.051691e-37
-3.330669e-18 9.714451e-19 -2.283012e-34
0.000000e+00 9.714451e-19 -5.072694e-31
1.110223e-18 -5.551115e-19 -1.334985e-27
5.032335e-18 -6.864644e-20 -3.911627e-24
2.990744e-15 1.444544e-16 -9.767441e-21
0.000000e+00 4.163336e-19 -5.439704e-43
-2.220446e-18 2.775558e-19 -1.591965e-39
0.000000e+00 -1.526557e-18 -4.146066e-36
1.110223e-18 8.326673e-19 -9.561009e-33
0.000000e+00 8.326673e-19 -1.953227e-29
2.220446e-18 2.775558e-19 -3.568732e-26
-2.967355e-19 3.629528e-19 -5.927214e-23
2.972581e-15 1.436805e-16 -1.336561e-19
0.000000e+00 -5.551115e-19 1.410806e-46
-1.110223e-18 -4.163336e-19 4.679502e-43
4.440892e-18 -1.249001e-18 1.403970e-39
3.330669e-18 1.387779e-19 3.792583e-36
-5.551115e-18 -9.714451e-19 9.200504e-33
0.000000e+00 6.938894e-19 1.996531e-29
3.330669e-18 -2.775558e-19 3.839763e-26
1.452455e-18 -6.781599e-19 6.448643e-23
-3.330669e-18 -6.938894e-19 2.216402e-48
3.330669e-18 8.326673e-19 8.446264e-45
-2.220446e-18 -1.387779e-18 3.207350e-41
3.330669e-18 -6.938894e-19 1.224042e-37
-3.330669e-18 -1.387779e-19 4.459835e-34
0.000000e+00 -6.938894e-19 1.437031e-30
2.220446e-18 5.551115e-19 3.850265e-27
4.783124e-18 1.374365e-18 8.295517e-24
-3.330669e-18 4.163336e-19 -2.366117e-53
0.000000e+00 6.938894e-19 -6.388359e-50
0.000000e+00 -1.526557e-18 -1.521213e-46
-3.330669e-18 0.000000e+00 -3.173729e-43
1.110223e-18 -5.551115e-19 -5.772002e-40
-1.110223e-18 1.387779e-19 -9.116727e-37
7.203411e-18 -1.202608e-20 -1.505599e-33
2.741939e-15 1.315109e-16 -1.474347e-30
3.330669e-18 -2.775558e-19 -8.445962e-45
-2.220446e-18 -1.387779e-18 -3.207291e-41
4.440892e-18 -1.110223e-18 -1.224032e-37
-3.330669e-18 -1.387779e-19 -4.459821e-34
0.000000e+00 -6.938894e-19 -1.437004e-30
3.330669e-18 -3.469447e-19 -3.849569e-27
3.894946e-18 1.295274e-19 -8.287978e-24
2.743737e-15 1.323700e-16 -1.422937e-20
-1.110223e-18 -6.938894e-19 -4.477258e-43
3.330669e-18 -4.163336e-19 -1.353391e-39
3.330669e-18 1.387779e-19 -3.676515e-36
-5.551115e-18 -9.714451e-19 -8.961080e-33
0.000000e+00 6.938894e-19 -1.953738e-29
3.330669e-18 -4.163336e-19 -3.776837e-26
1.452455e-18 -1.369262e-19 -6.378452e-23
2.724902e-15 1.316448e-16 -1.371368e-19
-9.614531e-18 -3.330669e-19 2.210522e-18
5.551115e-18 5.551115e-19 6.199852e-26
0.000000e+00 -6.938894e-19 2.886518e-23
-2.220446e-18 -1.804112e-18 9.878106e-21
0.000000e+00 4.163336e-19 2.210544e-18
-1.110223e-18 -8.326673e-19 1.637432e-29
4.440892e-18 0.000000e+00 2.951281e-26
-4.107825e-18 3.774758e-19 4.737839e-23
-3.330669e-18 9.714451e-19 -1.110209e-18
2.220446e-18 1.387779e-19 -1.105278e-18
4.440892e-18 8.326673e-19 -4.941713e-21
-2.220446e-18 1.387779e-19 -1.105270e-18
-1.110223e-18 5.551115e-19 -1.440392e-23
0.000000e+00 6.938894e-19 -4.934367e-21
2.220446e-18 7.632783e-19 -1.105276e-18
4.307665e-18 4.593548e-19 1.634417e-24
0.000000e+00 4.163336e-19 1.105264e-18
-1.110223e-18 4.163336e-19 6.208378e-50
1.110223e-18 4.163336e-19 1.468706e-46
-1.110223e-18 4.163336e-19 3.045725e-43
-1.110223e-18 5.551115e-19 5.495034e-40
1.110223e-18 9.714451e-19 8.563057e-37
1.887379e-18 1.559863e-18 1.144947e-33
2.516718e-15 1.216887e-16 1.308421e-30
0.000000e+00 0.000000e+00 -1.105250e-18
3.330669e-18 6.938894e-19 4.927250e-21
-3.330669e-18 9.714451e-19 1.100316e-18
-1.110223e-18 2.775558e-19 -1.110209e-18
0.000000e+00 5.551115e-19 -1.105303e-18
0.000000e+00 4.857226e-19 -9.864685e-21
5.351275e-18 1.068590e-19 -2.210558e-18
2.519094e-15 1.222272e-16 -5.344756e-21
5.551115e-18 5.551115e-19 -4.061600e-43
1.110223e-18 6.938894e-19 -1.244831e-39
-2.220446e-18 -1.804112e-18 -3.362094e-36
0.000000e+00 6.938894e-19 -7.944207e-33
-3.330669e-18 -4.163336e-19 -1.636835e-29
4.440892e-18 0.000000e+00 -2.950651e-26
3.375078e-18 -5.329071e-19 -4.737874e-23
2.500592e-15 1.198761e-16 -7.038174e-20
7.682743e-18 -4.274359e-19 -1.317935e-19
2.220446e-18 4.163336e-19 -5.480132e-26
0.000000e+00 0.000000e+00 -2.578756e-23
1.110223e-18 2.775558e-19 -8.919375e-21
-1.110223e-18 -1.110223e-18 -2.017349e-18
-3.330669e-18 -2.775558e-19 -1.650454e-27
3.330669e-18 6.938894e-20 -7.586607e-25
-4.618528e-18 -1.096345e-18 -2.259445e-22
-3.330669e-18 -1.387779e-19 1.361442e-19
1.110223e-18 -1.387779e-19 9.823216e-19
4.440892e-18 9.714451e-19 4.423222e-21
0.000000e+00 -8.326673e-19 9.998864e-19
-3.330669e-18 -8.326673e-19 1.309234e-23
0.000000e+00 -5.551115e-19 4.533077e-21
2.220446e-18 2.775558e-19 1.026251e-18
2.864375e-18 -5.356826e-19 4.418069e-24
0.000000e+00 4.163336e-19 -9.823088e-19
-4.440892e-18 -1.387779e-18 -4.256403e-50
1.110223e-18 4.163336e-19 -1.213960e-46
-4.440892e-18 1.387779e-19 -2.903649e-43
2.220446e-18 5.551115e-19 -5.871016e-40
0.000000e+00 1.110223e-18 -1.006126e-36
3.819167e-18 2.331468e-19 -1.462162e-33
2.298496e-15 1.114577e-16 -1.802548e-30
1.110223e-18 1.110223e-18 9.822960e-19
4.440892e-18 9.714451e-19 -4.410301e-21
1.110223e-18 -9.714451e-19 -9.954137e-19
-4.440892e-18 -8.326673e-19 1.013171e-18
0.000000e+00 -5.551115e-19 1.017447e-18
3.330669e-18 0.000000e+00 -5.515942e-21
2.065015e-18 -5.981327e-19 -1.251067e-18
2.299362e-15 1.103002e-16 -1.175636e-18
3.330669e-18 -6.938894e-19 1.230076e-19
-1.110223e-18 -1.387779e-19 1.237848e-24
1.110223e-18 -5.551115e-19 4.284443e-22
-3.330669e-18 -1.249001e-18 9.703893e-20
0.000000e+00 5.551115e-19 8.824086e-20
3.330669e-18 6.938894e-20 8.883962e-20
-4.662937e-18 5.120904e-19 2.211158e-18
2.292822e-15 1.109020e-16 5.276739e-20
-1.110223e-18 1.249001e-18 8.139723e-47
4.440892e-18 6.938894e-19 2.792209e-43
-1.110223e-18 6.938894e-19 8.628358e-40
-1.110223e-18 0.000000e+00 2.375714e-36
-2.220446e-18 4.163336e-19 5.778303e-33
0.000000e+00 8.326673e-19 1.234960e-29
3.330669e-18 1.040834e-18 2.325828e-26
-3.330669e-18 1.249001e-18 4.902013e-48
1.110223e-18 5.551115e-19 1.517741e-44
4.440892e-18 2.775558e-19 4.165121e-41
0.000000e+00 1.249001e-18 1.010905e-37
-3.330669e-18 1.387779e-18 2.172405e-34
0.000000e+00 -1.387779e-19 4.238262e-31
2.220446e-18 -2.081668e-19 8.497736e-28
-2.220446e-18 -5.551115e-19 -1.041535e-53
0.000000e+00 -8.326673e-19 -3.214242e-50
0.000000e+00 -2.775558e-19 -8.557357e-47
-2.220446e-18 -8.326673e-19 -1.960646e-43
1.110223e-18 -1.249001e-18 -3.856396e-40
-1.110223e-18 -3.469447e-19 -6.500571e-37
3.819167e-18 -1.303124e-18 -9.387656e-34
2.110988e-15 1.008050e-16 -1.161411e-30
1.110223e-18 5.551115e-19 -1.510432e-44
4.440892e-18 2.775558e-19 -4.148013e-41
0.000000e+00 1.249001e-18 -1.007504e-37
-3.330669e-18 1.387779e-18 -2.166940e-34
0.000000e+00 1.249001e-18 -4.233754e-31
2.220446e-18 -2.081668e-19 -8.514156e-28
3.064216e-18 8.604228e-20 -2.170710e-24
2.111254e-15 1.031253e-16 -6.126512e-21
4.440892e-18 5.551115e-19 -2.792255e-43
-1.110223e-18 6.938894e-19 -8.628526e-40
-1.110223e-18 -1.387779e-19 -2.375767e-36
-3.330669e-18 0.000000e+00 -5.778442e-33
0.000000e+00 1.110223e-18 -1.234989e-29
3.330669e-18 1.179612e-18 -2.325879e-26
-4.463097e-18 5.689893e-19 -3.939220e-23
2.104626e-15 1.029351e-16 -6.164675e-20
0.000000e+00 -1.387779e-19 6.357937e-47
-1.110223e-18 0.000000e+00 2.249816e-43
1.110223e-18 5.551115e-19 7.146217e-40
3.330669e-18 4.163336e-19 2.017799e-36
-7.771561e-18 2.775558e-19 5.038725e-33
4.440892e-18 -1.457168e-18 1.113442e-29