# vtk DataFile Version 2.0
Simplicial Mesh Example
ASCII
DATASET UNSTRUCTURED_GRID
POINTS 1302 double
0.000000e+00 1.000000e+00 5.000000e-01
-5.551115e-17 1.000000e+00 3.000000e-01
3.302130e-02 6.666667e-01 5.000000e-01
3.302130e-02 6.666667e-01 3.000000e-01
-2.000000e-01 1.000000e+00 5.000000e-01
-2.000000e-01 1.000000e+00 3.000000e-01
-1.691801e-01 6.666667e-01 5.000000e-01
-1.691801e-01 6.666667e-01 3.000000e-01
-4.000000e-01 1.000000e+00 5.000000e-01
-4.000000e-01 1.000000e+00 3.000000e-01
-3.713816e-01 6.666667e-01 5.000000e-01
-3.713816e-01 6.666667e-01 3.000000e-01
-6.000000e-01 1.000000e+00 5.000000e-01
-6.000000e-01 1.000000e+00 3.000000e-01
-5.735829e-01 6.666667e-01 5.000000e-01
-5.735829e-01 6.666667e-01 3.000000e-01
-8.000000e-01 1.000000e+00 5.000000e-01
-8.000000e-01 1.000000e+00 3.000000e-01
-7.757844e-01 6.666667e-01 5.000000e-01
-7.757844e-01 6.666667e-01 3.000000e-01
-1.000000e+00 1.000000e+00 5.000000e-01
-1.000000e+00 1.000000e+00 3.000000e-01
-9.779858e-01 6.666667e-01 5.000000e-01
-9.779858e-01 6.666667e-01 3.000000e-01
-1.200000e+00 1.000000e+00 5.000000e-01
-1.200000e+00 1.000000e+00 3.000000e-01
-1.180187e+00 6.666667e-01 5.000000e-01
-1.180187e+00 6.666667e-01 3.000000e-01
-2.000000e-01 1.000000e+00 1.000000e-01
-1.691801e-01 6.666667e-01 1.000000e-01
-4.000000e-01 1.000000e+00 1.000000e-01
-3.713816e-01 6.666667e-01 1.000000e-01
-6.000000e-01 1.000000e+00 1.000000e-01
-5.735829e-01 6.666667e-01 1.000000e-01
-8.000000e-01 1.000000e+00 1.000000e-01
-7.757844e-01 6.666667e-01 1.000000e-01
-1.000000e+00 1.000000e+00 1.000000e-01
-9.779858e-01 6.666667e-01 1.000000e-01
-1.200000e+00 1.000000e+00 1.000000e-01
-1.180187e+00 6.666667e-01 1.000000e-01
-2.000000e-01 1.000000e+00 -1.000000e-01
-1.691801e-01 6.666667e-01 -1.000000e-01
-4.000000e-01 1.000000e+00 -1.000000e-01
-3.713816e-01 6.666667e-01 -1.000000e-01
-6.000000e-01 1.000000e+00 -1.000000e-01
-5.735829e-01 6.666667e-01 -1.000000e-01
-8.000000e-01 1.000000e+00 -1.000000e-01
-7.757844e-01 6.666667e-01 -1.000000e-01
-1.000000e+00 1.000000e+00 -1.000000e-01
-9.779858e-01 6.666667e-01 -1.000000e-01
-1.200000e+00 1.000000e+00 -1.000000e-01
-1.180187e+00 6.666667e-01 -1.000000e-01
-1.400000e+00 1.000000e+00 -1.000000e-01
-1.382389e+00 6.666667e-01 -1.000000e-01
-2.000000e-01 1.000000e+00 -3.000000e-01
-1.691801e-01 6.666667e-01 -3.000000e-01
-4.000000e-01 1.000000e+00 -3.000000e-01
-3.713816e-01 6.666667e-01 -3.000000e-01
-6.000000e-01 1.000000e+00 -3.000000e-01
-5.735829e-01 6.666667e-01 -3.000000e-01
-8.000000e-01 1.000000e+00 -3.000000e-01
-7.757844e-01 6.666667e-01 -3.000000e-01
-1.000000e+00 1.000000e+00 -3.000000e-01
-9.779858e-01 6.666667e-01 -3.000000e-01
-1.200000e+00 1.000000e+00 -3.000000e-01
-1.180187e+00 6.666667e-01 -3.000000e-01
-1.400000e+00 1.000000e+00 -3.000000e-01
-1.382389e+00 6.666667e-01 -3.000000e-01
-2.000000e-01 1.000000e+00 -5.000000e-01
-1.691801e-01 6.666667e-01 -5.000000e-01
-4.000000e-01 1.000000e+00 -5.000000e-01
-3.713816e-01 6.666667e-01 -5.000000e-01
-6.000000e-01 1.000000e+00 -5.000000e-01
-5.735829e-01 6.666667e-01 -5.000000e-01
-8.000000e-01 1.000000e+00 -5.000000e-01
-7.757844e-01 6.666667e-01 -5.000000e-01
-1.000000e+00 1.000000e+00 -5.000000e-01
-9.779858e-01 6.666667e-01 -5.000000e-01
-1.200000e+00 1.000000e+00 -5.000000e-01
-1.180187e+00 6.666667e-01 -5.000000e-01
-1.400000e+00 1.000000e+00 -5.000000e-01
-1.382389e+00 6.666667e-01 -5.000000e-01
6.604260e-02 3.333333e-01 5.000000e-01
6.604260e-02 3.333333e-01 3.000000e-01
-1.383602e-01 3.333333e-01 5.000000e-01
-1.383602e-01 3.333333e-01 3.000000e-01
-3.427631e-01 3.333333e-01 5.000000e-01
-3.427631e-01 3.333333e-01 3.000000e-01
-5.471659e-01 3.333333e-01 5.000000e-01
-5.471659e-01 3.333333e-01 3.000000e-01
-7.515687e-01 3.333333e-01 5.000000e-01
-7.515687e-01 3.333333e-01 3.000000e-01
-9.559716e-01 3.333333e-01 5.000000e-01
-9.559716e-01 3.333333e-01 3.000000e-01
-1.160374e+00 3.333333e-01 5.000000e-01
-1.160374e+00 3.333333e-01 3.000000e-01
-1.383602e-01 3.333333e-01 1.000000e-01
-3.427631e-01 3.333333e-01 1.000000e-01
-5.471659e-01 3.333333e-01 1.000000e-01
-7.515687e-01 3.333333e-01 1.000000e-01
-9.559716e-01 3.333333e-01 1.000000e-01
-1.160374e+00 3.333333e-01 1.000000e-01
-1.383602e-01 3.333333e-01 -1.000000e-01
-3.427631e-01 3.333333e-01 -1.000000e-01
-5.471659e-01 3.333333e-01 -1.000000e-01
-7.515687e-01 3.333333e-01 -1.000000e-01
-9.559716e-01 3.333333e-01 -1.000000e-01
-1.160374e+00 3.333333e-01 -1.000000e-01
-1.364777e+00 3.333333e-01 -1.000000e-01
-1.383602e-01 3.333333e-01 -3.000000e-01
-3.427631e-01 3.333333e-01 -3.000000e-01
-5.471659e-01 3.333333e-01 -3.000000e-01
-7.515687e-01 3.333333e-01 -3.000000e-01
-9.559716e-01 3.333333e-01 -3.000000e-01
-1.160374e+00 3.333333e-01 -3.000000e-01
-1.364777e+00 3.333333e-01 -3.000000e-01
-1.383602e-01 3.333333e-01 -5.000000e-01
-3.427631e-01 3.333333e-01 -5.000000e-01
-5.471659e-01 3.333333e-01 -5.000000e-01
-7.515687e-01 3.333333e-01 -5.000000e-01
-9.559716e-01 3.333333e-01 -5.000000e-01
-1.160374e+00 3.333333e-01 -5.000000e-01
-1.364777e+00 3.333333e-01 -5.000000e-01
9.906390e-02 -2.775558e-17 5.000000e-01
9.906390e-02 -5.551115e-17 3.000000e-01
-1.075404e-01 0.000000e+00 5.000000e-01
-1.075404e-01 0.000000e+00 3.000000e-01
-3.141446e-01 0.000000e+00 5.000000e-01
-3.141446e-01 0.000000e+00 3.000000e-01
-5.207489e-01 0.000000e+00 5.000000e-01
-5.207489e-01 0.000000e+00 3.000000e-01
-7.273532e-01 -5.551115e-17 5.000000e-01
-7.273532e-01 0.000000e+00 3.000000e-01
-9.339574e-01 0.000000e+00 5.000000e-01
-9.339574e-01 0.000000e+00 3.000000e-01
-1.140562e+00 0.000000e+00 5.000000e-01
-1.140562e+00 0.000000e+00 3.000000e-01
-1.075404e-01 -2.775558e-17 1.000000e-01
-3.141446e-01 0.000000e+00 1.000000e-01
-5.207489e-01 -2.775558e-17 1.000000e-01
-7.273532e-01 0.000000e+00 1.000000e-01
-9.339574e-01 0.000000e+00 1.000000e-01
-1.140562e+00 -2.775558e-17 1.000000e-01
-1.075404e-01 0.000000e+00 -1.000000e-01
-3.141446e-01 0.000000e+00 -1.000000e-01
-5.207489e-01 -2.775558e-17 -1.000000e-01
-7.273532e-01 0.000000e+00 -1.000000e-01
-9.339574e-01 0.000000e+00 -1.000000e-01
-1.140562e+00 -2.775558e-17 -1.000000e-01
-1.347166e+00 0.000000e+00 -1.000000e-01
-1.075404e-01 -2.775558e-17 -3.000000e-01
-3.141446e-01 0.000000e+00 -3.000000e-01
-5.207489e-01 0.000000e+00 -3.000000e-01
-7.273532e-01 -2.775558e-17 -3.000000e-01
-9.339574e-01 -2.775558e-17 -3.000000e-01
-1.140562e+00 -2.775558e-17 -3.000000e-01
-1.347166e+00 -5.551115e-17 -3.000000e-01
-1.075404e-01 0.000000e+00 -5.000000e-01
-3.141446e-01 0.000000e+00 -5.000000e-01
-5.207489e-01 0.000000e+00 -5.000000e-01
-7.273532e-01 0.000000e+00 -5.000000e-01
-9.339574e-01 0.000000e+00 -5.000000e-01
-1.140562e+00 0.000000e+00 -5.000000e-01
-1.347166e+00 -5.551115e-17 -5.000000e-01
1.320852e-01 -3.333333e-01 5.000000e-01
1.320852e-01 -3.333333e-01 3.000000e-01
-7.672048e-02 -3.333333e-01 5.000000e-01
-7.672048e-02 -3.333333e-01 3.000000e-01
-2.855262e-01 -3.333333e-01 5.000000e-01
-2.855262e-01 -3.333333e-01 3.000000e-01
-4.943318e-01 -3.333333e-01 5.000000e-01
-4.943318e-01 -3.333333e-01 3.000000e-01
-7.031375e-01 -3.333333e-01 5.000000e-01
-7.031375e-01 -3.333333e-01 3.000000e-01
-9.119432e-01 -3.333333e-01 5.000000e-01
-9.119432e-01 -3.333333e-01 3.000000e-01
-7.672048e-02 -3.333333e-01 1.000000e-01
-2.855262e-01 -3.333333e-01 1.000000e-01
-4.943318e-01 -3.333333e-01 1.000000e-01
-7.031375e-01 -3.333333e-01 1.000000e-01
-9.119432e-01 -3.333333e-01 1.000000e-01
-7.672048e-02 -3.333333e-01 -1.000000e-01
-2.855262e-01 -3.333333e-01 -1.000000e-01
-4.943318e-01 -3.333333e-01 -1.000000e-01
-7.031375e-01 -3.333333e-01 -1.000000e-01
-9.119432e-01 -3.333333e-01 -1.000000e-01
-1.120749e+00 -3.333333e-01 -1.000000e-01
-1.329555e+00 -3.333333e-01 -1.000000e-01
-7.672048e-02 -3.333333e-01 -3.000000e-01
-2.855262e-01 -3.333333e-01 -3.000000e-01
-4.943318e-01 -3.333333e-01 -3.000000e-01
-7.031375e-01 -3.333333e-01 -3.000000e-01
-9.119432e-01 -3.333333e-01 -3.000000e-01
-1.120749e+00 -3.333333e-01 -3.000000e-01
-1.329555e+00 -3.333333e-01 -3.000000e-01
-7.672048e-02 -3.333333e-01 -5.000000e-01
-2.855262e-01 -3.333333e-01 -5.000000e-01
-4.943318e-01 -3.333333e-01 -5.000000e-01
-7.031375e-01 -3.333333e-01 -5.000000e-01
-9.119432e-01 -3.333333e-01 -5.000000e-01
-1.120749e+00 -3.333333e-01 -5.000000e-01
-1.329555e+00 -3.333333e-01 -5.000000e-01
1.651065e-01 -6.666667e-01 5.000000e-01
1.651065e-01 -6.666667e-01 3.000000e-01
-4.590059e-02 -6.666667e-01 5.000000e-01
-4.590059e-02 -6.666667e-01 3.000000e-01
-2.569077e-01 -6.666667e-01 5.000000e-01
-2.569077e-01 -6.666667e-01 3.000000e-01
-4.679148e-01 -6.666667e-01 5.000000e-01
-4.679148e-01 -6.666667e-01 3.000000e-01
-6.789219e-01 -6.666667e-01 5.000000e-01
-6.789219e-01 -6.666667e-01 3.000000e-01
-8.899290e-01 -6.666667e-01 5.000000e-01
-8.899290e-01 -6.666667e-01 3.000000e-01
-4.590059e-02 -6.666667e-01 1.000000e-01
-2.569077e-01 -6.666667e-01 1.000000e-01
-4.679148e-01 -6.666667e-01 1.000000e-01
-6.789219e-01 -6.666667e-01 1.000000e-01
-8.899290e-01 -6.666667e-01 1.000000e-01
-4.590059e-02 -6.666667e-01 -1.000000e-01
-2.569077e-01 -6.666667e-01 -1.000000e-01
-4.679148e-01 -6.666667e-01 -1.000000e-01
-6.789219e-01 -6.666667e-01 -1.000000e-01
-8.899290e-01 -6.666667e-01 -1.000000e-01
-1.100936e+00 -6.666667e-01 -1.000000e-01
-1.311943e+00 -6.666667e-01 -1.000000e-01
-4.590059e-02 -6.666667e-01 -3.000000e-01
-2.569077e-01 -6.666667e-01 -3.000000e-01
-4.679148e-01 -6.666667e-01 -3.000000e-01
-6.789219e-01 -6.666667e-01 -3.000000e-01
-8.899290e-01 -6.666667e-01 -3.000000e-01
-1.100936e+00 -6.666667e-01 -3.000000e-01
-1.311943e+00 -6.666667e-01 -3.000000e-01
-4.590059e-02 -6.666667e-01 -5.000000e-01
-2.569077e-01 -6.666667e-01 -5.000000e-01
-4.679148e-01 -6.666667e-01 -5.000000e-01
-6.789219e-01 -6.666667e-01 -5.000000e-01
-8.899290e-01 -6.666667e-01 -5.000000e-01
-1.100936e+00 -6.666667e-01 -5.000000e-01
-1.311943e+00 -6.666667e-01 -5.000000e-01
1.981278e-01 -1.000000e+00 5.000000e-01
1.981278e-01 -1.000000e+00 3.000000e-01
[...]
CELL_DATA 900
SCALARS Density double 1
LOOKUP_TABLE default
1.000000e+00
1.000000e+00
1.000000e+00
1.000000e+00
1.000000e+00
1.000000e+00
1.000000e+00
1.000000e+00
1.000000e+00
1.000000e+00
1.000000e+00
1.000000e+00
1.000000e+00
1.000000e+00
1.000000e+00
1.000000e+00
1.000000e+00
1.000000e+00
1.000000e+00
1.000000e+00
1.000000e+00
1.000000e+00
1.000000e+00
1.000000e+00
1.000000e+00
1.000000e+00
1.000000e+00
1.000000e+00
1.000000e+00
1.000000e+00
1.000000e+00
1.000000e+00
1.000000e+00
1.000000e+00
1.000000e+00
1.000000e+00
1.000000e+00
1.000000e+00
1.000000e+00
1.000000e+00
1.000000e+00
1.000000e+00
1.000000e+00
1.000000e+00
1.000000e+00
1.000000e+00
1.000000e+00
1.000000e+00
1.000000e+00
1.000000e+00
1.000000e+00
1.000000e+00
1.000000e+00
1.000000e+00
1.000000e+00
1.000000e+00
1.000000e+00
1.000000e+00
1.000000e+00
1.000000e+00
1.000000e+00
1.000000e+00
1.000000e+00
1.000000e+00
1.000000e+00
1.000000e+00
1.000000e+00
1.000000e+00
1.000000e+00
1.000000e+00
1.000000e+00
1.000000e+00
1.000000e+00
1.000000e+00
1.000000e+00
1.000000e+00
1.000000e+00
1.000000e+00
1.000000e+00
1.000000e+00
1.000000e+00
1.000000e+00
1.000000e+00
1.000000e+00
1.000000e+00
1.000000e+00
1.000000e+00
1.000000e+00
1.000000e+00
1.000000e+00
1.000000e+00
1.000000e+00
1.000000e+00
1.000000e+00
1.000000e+00
1.000000e+00
1.000000e+00
1.000000e+00
1.000000e+00
1.000000e+00
1.000000e+00
1.000000e+00
1.000000e+00
1.000000e+00
1.000000e+00
1.000000e+00
1.000000e+00
1.000000e+00
1.000000e+00
1.000000e+00
1.000000e+00
1.000000e+00
1.000000e+00
1.000000e+00
1.000000e+00
1.000000e+00
1.000000e+00
1.000000e+00
1.000000e+00
1.000000e+00
1.000000e+00
1.000000e+00
1.000000e+00
1.000000e+00
1.000000e+00
1.000000e+00
1.000000e+00
1.000000e+00
1.000000e+00
1.000000e+00
1.000000e+00
1.000000e+00
1.000000e+00
1.000000e+00
1.000000e+00
1.000000e+00
1.000000e+00
1.000000e+00
1.000000e+00
1.000000e+00
1.000000e+00
1.000000e+00
1.000000e+00
1.000000e+00
1.000000e+00
1.000000e+00
1.000000e+00
1.000000e+00
1.000000e+00
1.000000e+00
1.000000e+00
1.000000e+00
1.000000e+00
1.000000e+00
1.000000e+00
1.000000e+00
1.000000e+00
1.000000e+00
1.000000e+00
1.000000e+00
1.000000e+00
1.000000e+00
1.000000e+00
1.000000e+00
1.000000e+00
1.000000e+00
1.000000e+00
1.000000e+00
1.000000e+00
1.000000e+00
1.000000e+00
1.000000e+00
1.000000e+00
1.000000e+00
1.000000e+00
1.000000e+00
1.000000e+00
1.000000e+00
1.000000e+00
1.000000e+00
1.000000e+00
1.000000e+00
1.000000e+00
1.000000e+00
1.000000e+00
1.000000e+00
1.000000e+00
1.000000e+00
1.000000e+00
1.000000e+00
1.000000e+00
1.000000e+00
1.000000e+00
1.000000e+00
1.000000e+00
1.000000e+00
1.000000e+00
1.000000e+00
1.000000e+00
1.000000e+00
1.000000e+00
1.000000e+00
1.000000e+00
1.000000e+00
1.000000e+00
1.000000e+00
1.000000e+00
1.000000e+00
1.000000e+00
1.000000e+00
1.000000e+00
1.000000e+00
1.000000e+00
1.000000e+00
1.000000e+00
1.000000e+00
1.000000e+00
1.000000e+00
1.000000e+00
1.000000e+00
1.000000e+00
1.000000e+00
1.000000e+00
1.000000e+00
1.000000e+00
1.000000e+00
1.000000e+00
1.000000e+00
1.000000e+00
1.000000e+00
1.000000e+00
1.000000e+00
1.000000e+00
1.000000e+00
1.000000e+00
1.000000e+00
1.000000e+00
1.000000e+00
1.000001e+00
1.000010e+00
1.000120e+00
1.001424e+00
1.010021e+00
1.063881e+00
1.000000e+00
1.000000e+00
1.000001e+00
1.000010e+00
1.000125e+00
1.001481e+00
1.010382e+00
1.065471e+00
1.000000e+00
1.000001e+00
1.000010e+00
1.000125e+00
1.001483e+00
1.010393e+00
1.065519e+00
1.000000e+00
1.000001e+00
1.000010e+00
1.000125e+00
1.001481e+00
1.010382e+00
1.065471e+00
1.000000e+00
1.000001e+00
1.000010e+00
1.000120e+00
1.001424e+00
1.010021e+00
1.063881e+00
1.000000e+00
1.000000e+00
1.000001e+00
1.000010e+00
1.000118e+00
1.001412e+00
1.010011e+00
1.064260e+00
1.000000e+00
1.000000e+00
1.000001e+00
1.000010e+00
1.000123e+00
1.001469e+00
1.010373e+00
1.065869e+00
1.000000e+00
1.000001e+00
1.000010e+00
1.000123e+00
1.001471e+00
1.010383e+00
1.065918e+00
1.000000e+00
1.000001e+00
1.000010e+00
1.000123e+00
1.001469e+00
1.010373e+00
1.065869e+00
1.000000e+00
1.000001e+00
1.000010e+00
1.000118e+00
1.001412e+00
1.010011e+00
1.064260e+00
1.000000e+00
1.000000e+00
1.000001e+00
1.000009e+00
1.000113e+00
1.001369e+00
1.009792e+00
1.063682e+00
1.000000e+00
1.000000e+00
1.000001e+00
1.000010e+00
1.000118e+00
1.001424e+00
1.010146e+00
1.065277e+00
1.000000e+00
1.000001e+00
1.000010e+00
1.000118e+00
1.001425e+00
1.010156e+00
1.065326e+00
1.000000e+00
1.000001e+00
1.000010e+00
1.000118e+00
1.001424e+00
1.010146e+00
1.065277e+00
1.000000e+00
1.000001e+00
1.000009e+00
1.000113e+00
1.001369e+00
1.009792e+00
1.063682e+00
1.000000e+00
1.000000e+00
1.000001e+00
1.000009e+00
1.000108e+00
1.001326e+00
1.009577e+00
1.063093e+00
1.000000e+00
1.000000e+00
1.000001e+00
1.000009e+00
1.000113e+00
1.001380e+00
1.009923e+00
1.064674e+00
1.000000e+00
1.000001e+00
1.000009e+00
1.000113e+00
1.001381e+00
1.009933e+00
1.064723e+00
1.000000e+00
1.000001e+00
1.000009e+00
1.000113e+00
1.001380e+00
1.009923e+00
1.064674e+00
1.000000e+00
1.000001e+00
1.000009e+00
1.000108e+00
1.001326e+00
1.009577e+00
1.063093e+00
1.000000e+00
1.000000e+00
1.000000e+00
1.000000e+00
1.000008e+00
1.000103e+00
1.001285e+00
1.009364e+00
1.062493e+00
1.000000e+00
1.000000e+00
1.000000e+00
1.000000e+00
1.000009e+00
1.000108e+00
1.001337e+00
1.009702e+00
1.064061e+00
1.000000e+00
1.000000e+00
1.000009e+00
1.000108e+00
1.001338e+00
1.009712e+00
1.064108e+00
1.000000e+00
1.000000e+00
1.000009e+00
1.000108e+00
1.001337e+00
1.009702e+00
1.064061e+00
1.000000e+00
1.000000e+00
1.000008e+00
1.000103e+00
1.001285e+00
1.009364e+00
1.062493e+00
1.000000e+00
1.000000e+00
1.000000e+00
1.000000e+00
1.000008e+00
1.000097e+00
1.001216e+00
1.008961e+00
1.060991e+00
1.000000e+00
1.000000e+00
1.000000e+00
1.000000e+00
1.000008e+00
1.000101e+00
1.001265e+00
1.009284e+00
1.062514e+00
1.000000e+00
1.000000e+00
1.000008e+00
1.000101e+00
1.001266e+00
1.009293e+00
1.062561e+00
1.000000e+00
1.000000e+00
1.000008e+00
1.000101e+00
1.001265e+00
1.009284e+00
1.062514e+00
1.000000e+00
1.000000e+00
1.000008e+00
1.000097e+00
1.001216e+00
1.008961e+00
1.060991e+00
1.000000e+00
1.000000e+00
1.000000e+00
1.000000e+00
1.000000e+00
1.000000e+00
1.000000e+00
1.000000e+00
1.000000e+00
1.000000e+00
1.000000e+00
1.000000e+00
1.000000e+00
1.000000e+00
1.000000e+00
1.000000e+00
1.000000e+00
1.000000e+00
1.000000e+00
1.000000e+00
1.000000e+00
1.000000e+00
1.000000e+00
1.000000e+00
1.000000e+00
1.000000e+00
1.000000e+00
1.000000e+00
1.000000e+00
1.000000e+00
1.000000e+00
1.000000e+00
1.000000e+00
1.000000e+00
1.000000e+00
1.000000e+00
1.000000e+00
1.000000e+00
1.000000e+00
1.000000e+00
1.000000e+00
1.000000e+00
1.000000e+00
1.000000e+00
1.000000e+00
1.000000e+00
1.000000e+00
1.000000e+00
1.000000e+00
1.000000e+00
1.000000e+00
1.000000e+00
1.000000e+00
1.000000e+00
1.000000e+00
1.000000e+00
1.000000e+00
1.000000e+00
1.000000e+00
1.000000e+00
1.000000e+00
1.000000e+00
1.000000e+00
1.000000e+00
1.000000e+00
1.000000e+00
1.000000e+00
1.000000e+00
1.000000e+00
1.000000e+00
1.000000e+00
1.000000e+00
1.000000e+00
1.000000e+00
1.000000e+00
1.000000e+00
1.000000e+00
1.000000e+00
1.000000e+00
1.000000e+00
1.000000e+00
1.000000e+00
1.000000e+00
1.000000e+00
1.000000e+00
1.000000e+00
1.000000e+00
1.000000e+00
1.000000e+00
1.000000e+00
1.000000e+00
1.000000e+00
1.000000e+00
1.000000e+00
1.000000e+00
1.000000e+00
1.000000e+00
1.000000e+00
1.000000e+00
1.000000e+00
1.000000e+00
1.000000e+00
1.000000e+00
1.000000e+00
1.000000e+00
1.000000e+00
1.000000e+00
1.000000e+00
1.000000e+00
1.000000e+00
1.000000e+00
1.000000e+00
1.000000e+00
1.000000e+00
1.000000e+00
1.000000e+00
1.000000e+00
1.000000e+00
1.000000e+00
1.000000e+00
1.000000e+00
1.000000e+00
1.000000e+00
1.000000e+00
1.000000e+00
1.000000e+00
1.000000e+00
1.000000e+00
1.000000e+00
1.000000e+00
1.000000e+00
1.000000e+00
1.000000e+00
1.000000e+00
1.000000e+00
1.000000e+00
1.000000e+00
1.000000e+00
1.000000e+00
1.000000e+00
1.000000e+00
1.000000e+00
1.000000e+00
1.000000e+00
1.000000e+00
1.000000e+00
1.000000e+00
1.000000e+00
1.000000e+00
1.000000e+00
1.000000e+00
1.000000e+00
1.000000e+00
1.000000e+00
1.000000e+00
1.000000e+00
1.000000e+00
1.000000e+00
1.000000e+00
1.000000e+00
1.000000e+00
1.000000e+00
1.000000e+00
1.000000e+00
1.000000e+00
1.000000e+00
1.000000e+00
1.000000e+00
1.000000e+00
1.000000e+00
1.000000e+00
1.000000e+00
1.000000e+00
1.000000e+00
1.000000e+00
1.000000e+00
1.000000e+00
1.000000e+00
1.000000e+00
1.000000e+00
1.000000e+00
1.000000e+00
1.000000e+00
1.000000e+00
1.000000e+00
1.000000e+00
1.000000e+00
1.000000e+00
1.000000e+00
1.000000e+00
1.000000e+00
1.000000e+00
1.000000e+00
1.000000e+00
1.000000e+00
1.000000e+00
1.000000e+00
1.000000e+00
1.000000e+00
1.000000e+00
1.000000e+00
1.000000e+00
1.000000e+00
1.000000e+00
1.000000e+00
1.000000e+00
1.000000e+00
1.000000e+00
1.000000e+00
1.000000e+00
1.000000e+00
1.000000e+00
1.000000e+00
1.000000e+00
1.000000e+00
1.000000e+00
1.000000e+00
1.000000e+00
1.000000e+00
1.000000e+00
1.000000e+00
1.000000e+00
1.000000e+00
1.000000e+00
1.000000e+00
1.000000e+00
1.000000e+00
1.000000e+00
1.000000e+00
1.000000e+00
1.000000e+00
1.000000e+00
1.000000e+00
1.000000e+00
1.000000e+00
1.000000e+00
1.000000e+00
1.000000e+00
1.000000e+00
1.000000e+00
1.000000e+00
1.000000e+00
1.000000e+00
1.000000e+00
1.000000e+00
1.000000e+00
1.000000e+00
1.000000e+00
1.000000e+00
1.000000e+00
1.000000e+00
1.000000e+00
1.000000e+00
1.000000e+00
1.000000e+00
1.000000e+00
1.000000e+00
1.000000e+00
1.000000e+00
1.000000e+00
1.000000e+00
1.000000e+00
1.000000e+00
1.000000e+00
1.000000e+00
1.000000e+00
1.000000e+00
1.000000e+00
1.000000e+00
1.000000e+00
1.000000e+00
1.000000e+00
1.000000e+00
1.000000e+00
1.000000e+00
1.000000e+00
1.000000e+00
1.000000e+00
1.000000e+00
1.000000e+00
1.000000e+00
1.000000e+00
1.000000e+00
1.000000e+00
1.000000e+00
1.000000e+00
1.000000e+00
1.000000e+00
1.000000e+00
1.000000e+00
1.000000e+00
1.000000e+00
1.000000e+00
1.000000e+00
1.000000e+00
1.000000e+00
1.000000e+00
1.000000e+00
1.000000e+00
1.000000e+00
1.000000e+00
1.000000e+00
1.000000e+00
1.000000e+00
1.000000e+00
1.000000e+00
1.000000e+00
1.000000e+00
1.000000e+00
1.000000e+00
1.000000e+00
1.000000e+00
1.000000e+00
1.000000e+00
1.000000e+00
1.000000e+00
1.000000e+00
1.000000e+00
1.000000e+00
1.000000e+00
1.000000e+00
1.000000e+00
1.000000e+00
1.000000e+00
1.000000e+00
1.000000e+00
1.000000e+00
1.000000e+00
1.000000e+00
1.000000e+00
1.000000e+00
1.000000e+00
1.000000e+00
1.000000e+00
1.000000e+00
1.000000e+00
1.000000e+00
1.000000e+00
1.000000e+00
1.000000e+00
1.000000e+00
1.000000e+00
1.000000e+00
1.000000e+00
1.000000e+00
1.000000e+00
1.000000e+00
1.000000e+00
1.000000e+00
1.000000e+00
1.000000e+00
1.000000e+00
1.000000e+00
1.000000e+00
1.000000e+00
1.000000e+00
1.000000e+00
1.000000e+00
1.000000e+00
1.000000e+00
1.000000e+00
1.000000e+00
1.000000e+00
1.000000e+00
1.000000e+00
1.000000e+00
1.000000e+00
1.000000e+00
1.000000e+00
1.000000e+00
1.000000e+00
1.000000e+00
1.000000e+00
1.000000e+00
1.000000e+00
1.000000e+00
1.000000e+00
1.000000e+00
1.000000e+00
1.000000e+00
1.000000e+00
1.000000e+00
1.000000e+00
1.000000e+00
1.000000e+00
1.000000e+00
1.000000e+00
1.000000e+00
1.000000e+00
1.000000e+00
1.000000e+00
1.000000e+00
1.000000e+00
1.000000e+00
1.000000e+00
1.000000e+00
1.000000e+00
1.000000e+00
1.000000e+00
1.000000e+00
1.000000e+00
1.000000e+00
1.000000e+00
1.000000e+00
1.000000e+00
1.000000e+00
1.000000e+00
1.000000e+00
1.000000e+00
1.000000e+00
1.000000e+00
1.000000e+00
1.000000e+00
1.000000e+00
1.000000e+00
1.000000e+00
1.000000e+00
1.000000e+00
1.000000e+00
1.000000e+00
1.000000e+00
1.000000e+00
1.000000e+00
1.000000e+00
1.000000e+00
1.000000e+00
1.000000e+00
1.000000e+00
1.000000e+00
1.000000e+00
1.000000e+00
1.000000e+00
1.000000e+00
1.000000e+00
1.000000e+00
1.000000e+00
1.000000e+00
1.000000e+00
VECTORS Momentum double
-9.769963e-19 1.309508e-17 -1.574888e-17
0.000000e+00 -4.163336e-18 1.295733e-17
-6.661338e-18 0.000000e+00 6.980378e-23
6.720468e-17 -3.313206e-18 2.937311e-20
1.208597e-14 8.913068e-16 1.723110e-17
3.972083e-13 2.592579e-14 1.452078e-15
1.171519e-11 6.906775e-13 4.514212e-14
3.011315e-10 1.577200e-11 1.301980e-12
6.661338e-18 -4.163336e-18 1.574888e-17
-6.661338e-18 2.972622e-18 -1.295733e-17
1.998401e-17 3.330669e-18 2.933562e-23
7.473196e-17 1.314007e-17 1.272647e-20
1.268252e-14 9.312069e-16 7.712625e-18
4.165065e-13 2.718818e-14 6.026063e-16
1.227476e-11 7.236586e-13 1.806039e-14
3.154112e-10 1.651984e-11 5.153564e-13
0.000000e+00 -9.109380e-18 6.478664e-18
1.998401e-17 3.774758e-18 1.173990e-34
7.499841e-17 8.224553e-18 3.497999e-32
1.271075e-14 9.248252e-16 9.771745e-30
4.171021e-13 2.720945e-14 -1.206251e-29
1.228979e-11 7.244255e-13 -8.541853e-28
3.157902e-10 1.653914e-11 -8.446062e-26
7.687158e-09 3.549092e-10 -1.024786e-23
-6.661338e-18 9.983681e-18 -6.478664e-18
1.998401e-17 3.330669e-18 -2.930638e-23
7.466535e-17 1.273206e-17 -1.267278e-20
1.267843e-14 9.342128e-16 -7.668349e-18
4.165064e-13 2.718831e-14 -6.026284e-16
1.227476e-11 7.236586e-13 -1.806039e-14
3.154112e-10 1.651984e-11 -5.153564e-13
7.678003e-09 3.544875e-10 -1.295815e-11
0.000000e+00 2.498002e-18 -1.824667e-25
-1.332268e-17 1.665335e-18 -6.989295e-23
6.720468e-17 -2.378883e-19 -2.943524e-20
1.208670e-14 8.895027e-16 -1.723507e-17
3.972083e-13 2.592568e-14 -1.452604e-15
1.171519e-11 6.906774e-13 -4.514187e-14
3.011315e-10 1.577200e-11 -1.301980e-12
7.333463e-09 3.385847e-10 -3.289755e-11
-2.393863e-16 6.631174e-16 -4.651174e-18
-1.014744e-17 -6.772360e-19 1.569773e-25
2.664535e-17 -7.410739e-18 5.846224e-23
6.875985e-17 4.616040e-18 2.227923e-20
1.081082e-14 7.866254e-16 1.239102e-17
3.625217e-13 2.324104e-14 1.328523e-15
1.081210e-11 6.247892e-13 4.167691e-14
2.808897e-10 1.434892e-11 1.215035e-12
-1.902922e-17 -4.010681e-18 -4.181448e-18
1.998401e-17 4.748979e-18 6.600021e-26
-1.314504e-17 -6.014633e-18 2.434899e-23
7.559636e-17 1.317598e-19 9.406946e-21
1.137991e-14 8.319229e-16 5.481784e-18
3.801543e-13 2.438415e-14 5.435506e-16
1.132873e-11 6.545997e-13 1.658911e-14
2.942128e-10 1.502935e-11 4.805237e-13
-1.998401e-17 2.498002e-18 1.452263e-37
0.000000e+00 3.647083e-18 4.954355e-35
5.574558e-17 -3.160051e-18 2.113007e-32
1.140510e-14 8.339671e-16 3.539204e-30
3.806071e-13 2.439732e-14 3.608426e-28
1.134214e-11 6.552617e-13 2.095371e-26
2.945657e-10 1.504717e-11 -1.632620e-25
7.249674e-09 3.251513e-10 -3.918822e-24
1.998401e-17 -1.723621e-18 -6.601912e-26
-1.314504e-17 -8.326673e-18 -2.435310e-23
8.121409e-17 -2.321833e-18 -9.407682e-21
1.138006e-14 8.316620e-16 -5.481885e-18
3.801547e-13 2.438383e-14 -5.435599e-16
1.132873e-11 6.545973e-13 -1.658955e-14
2.942128e-10 1.502935e-11 -4.805238e-13
7.241036e-09 3.247641e-10 -1.221999e-11
5.151435e-18 -1.327272e-17 -1.569929e-25
1.998401e-17 -2.498002e-18 -5.846840e-23
6.875985e-17 4.604938e-18 -2.228074e-20
1.081097e-14 7.864117e-16 -1.239113e-17
3.625216e-13 2.324093e-14 -1.328485e-15
1.081210e-11 6.247889e-13 -4.167717e-14
2.808897e-10 1.434892e-11 -1.215035e-12
6.916031e-09 3.101972e-10 -3.102421e-11
-1.813568e-14 -3.285138e-15 -2.039319e-15
-1.089956e-15 -1.129828e-16 -6.555902e-18
-3.774758e-18 -4.915512e-18 6.388313e-21
2.126260e-17 -7.269157e-18 3.685275e-19
9.436457e-15 6.952836e-16 2.444522e-17
3.221817e-13 2.051078e-14 1.230631e-15
9.720155e-12 5.568791e-13 3.738401e-14
2.552286e-10 1.289262e-11 1.104493e-12
9.060446e-16 9.146370e-17 -1.158981e-15
1.294520e-17 5.662137e-19 -1.069203e-17
2.664535e-17 4.996004e-18 -1.754956e-19
2.653302e-17 3.975618e-18 -6.475328e-18
9.944890e-15 7.325073e-16 5.309969e-18
3.378223e-13 2.152947e-14 4.935301e-16
1.018477e-11 5.833830e-13 1.477564e-14
2.673339e-10 1.350352e-11 4.369804e-13
0.000000e+00 2.498002e-18 6.482507e-18
-6.661338e-18 2.498002e-18 -1.627004e-27
4.689451e-17 5.443887e-18 -6.605616e-25
9.948531e-15 7.314553e-16 -1.982155e-22
3.381310e-13 2.154044e-14 -4.543462e-20
1.019697e-11 5.841434e-13 -8.949871e-20
2.676552e-10 1.351967e-11 -1.502896e-19
6.658999e-09 2.947471e-10 1.965573e-19
3.756995e-17 4.032885e-18 -2.256684e-17
1.998401e-17 4.163336e-18 1.722820e-19
1.976066e-17 8.541410e-18 6.296705e-18
9.946866e-15 7.309918e-16 -1.194786e-17
3.378221e-13 2.152766e-14 -4.997615e-16
1.018476e-11 5.833823e-13 -1.478138e-14
2.673339e-10 1.350352e-11 -4.369906e-13
6.651065e-09 2.943960e-10 -1.122325e-11
2.493854e-15 2.433354e-16 -3.283159e-17
2.213785e-17 4.402034e-18 -4.770391e-23
2.124039e-17 -7.502304e-18 -1.767715e-20
9.437279e-15 6.962273e-16 -1.147521e-17
3.221723e-13 2.051241e-14 -1.229492e-15
9.720156e-12 5.568791e-13 -3.738143e-14
2.552287e-10 1.289262e-11 -1.104494e-12
6.352546e-09 2.811947e-10 -2.849258e-11
1.806934e-14 1.156122e-15 4.461364e-15
2.304259e-15 2.227563e-16 2.665718e-17
1.341149e-17 4.662937e-19 -5.627064e-21
3.508305e-17 3.863576e-18 -3.031840e-19
8.254731e-15 6.048691e-16 -7.680352e-18
2.867843e-13 1.829691e-14 1.106178e-15
8.744774e-12 5.013665e-13 3.343587e-14
2.320474e-10 1.172696e-11 1.003407e-12
2.093891e-16 1.991345e-17 2.404184e-15
2.284839e-17 5.440093e-19 2.004461e-17
2.664535e-17 5.434542e-18 1.571670e-19
3.175238e-17 -2.584044e-18 5.871690e-18
8.702381e-15 6.391819e-16 1.695399e-18
3.006270e-13 1.915695e-14 4.471156e-16
9.162338e-12 5.251332e-13 1.337893e-14
2.430535e-10 1.228244e-11 3.965964e-13
0.000000e+00 2.403633e-18 -5.762741e-18
-2.269296e-17 -7.066570e-18 2.440673e-27
3.637091e-17 4.729550e-18 1.132114e-24
8.704979e-15 6.439725e-16 3.951187e-22
3.010840e-13 1.919289e-14 1.122491e-19
9.173022e-12 5.257706e-13 1.296900e-19
2.433449e-10 1.229733e-11 -1.562054e-19
6.119250e-09 2.709844e-10 -1.527338e-19
-4.041212e-18 3.386180e-18 9.192020e-18
2.664535e-17 5.662137e-18 -1.542951e-19
3.785861e-17 -3.474998e-18 -5.710351e-18
8.696697e-15 6.390181e-16 4.384412e-18
3.006276e-13 1.915704e-14 -4.411907e-16
9.162342e-12 5.251327e-13 -1.337355e-14
2.430535e-10 1.228244e-11 -3.965998e-13
6.111959e-09 2.706615e-10 -1.031250e-11
-9.218140e-16 -8.511569e-17 9.083622e-18
-7.349676e-18 -1.809664e-18 2.353060e-22
3.521627e-17 -1.201816e-18 1.701951e-21
8.241497e-15 6.040115e-16 -3.580744e-18
2.868036e-13 1.829964e-14 -1.107623e-15
8.744775e-12 5.013666e-13 -3.343778e-14
2.320474e-10 1.172696e-11 -1.003397e-12
5.837642e-09 2.585244e-10 -2.618189e-11
2.102096e-16 1.446995e-15 1.662557e-17
3.601563e-17 1.298961e-17 5.379644e-26
-6.661338e-18 4.163336e-18 2.319833e-23
1.805223e-17 1.851297e-18 9.016399e-21
7.215270e-15 5.378187e-16 3.094392e-18
2.554443e-13 1.619482e-14 9.243954e-16
7.871095e-12 4.476211e-13 2.979809e-14
-1.569855e-17 1.680600e-17 1.054262e-17
6.661338e-18 3.330669e-18 1.968058e-26
2.664535e-17 1.665335e-18 8.596430e-24
2.640110e-17 9.228729e-18 3.406443e-21
7.584056e-15 5.706935e-16 1.196293e-18
2.676144e-13 1.691680e-14 3.669598e-16
8.246822e-12 4.688097e-13 1.175368e-14
-1.332268e-17 -3.330669e-18 2.013086e-36
0.000000e+00 -4.996004e-18 8.366340e-34
2.646772e-17 6.217249e-19 2.951902e-31
7.595898e-15 5.589336e-16 8.593015e-29
2.678909e-13 1.693306e-14 2.014295e-26
8.256931e-12 4.694081e-13 3.442161e-24
2.213464e-10 1.107111e-11 3.894084e-22
5.625319e-09 2.460466e-10 2.180865e-20
6.661338e-18 3.330669e-18 -1.969410e-26
2.664535e-17 1.665335e-18 -8.600488e-24
2.640110e-17 9.292567e-18 -3.407399e-21
7.584167e-15 5.709961e-16 -1.196497e-18
2.676147e-13 1.692202e-14 -3.670037e-16
8.246822e-12 4.688097e-13 -1.175363e-14
2.210804e-10 1.105776e-11 -3.611209e-13
5.618617e-09 2.457535e-10 -9.479732e-12
2.302603e-17 1.443290e-18 -5.376336e-26
-6.661338e-18 4.163336e-18 -2.318487e-23
1.776357e-17 9.381385e-19 -9.010979e-21
7.211784e-15 5.359841e-16 -3.092514e-18
2.554447e-13 1.619550e-14 -9.239954e-16
7.871095e-12 4.476220e-13 -2.979780e-14
2.110695e-10 1.055748e-11 -9.124210e-13
5.366450e-09 2.347362e-10 -2.406584e-11
1.243450e-18 6.014633e-18 7.723277e-29
-6.661338e-18 0.000000e+00 3.865999e-26
6.661338e-18 3.330669e-18 1.755702e-23
3.983480e-17 3.969047e-18 7.071172e-21
6.096964e-15 4.541439e-16 2.467131e-18
2.211347e-13 1.371756e-14 7.262453e-16
6.891195e-12 3.821342e-13 2.580783e-14
-6.661338e-18 -6.325496e-18 2.681244e-29