# vtk DataFile Version 2.0
Simplicial Mesh Example
ASCII
DATASET UNSTRUCTURED_GRID
POINTS 1302 double
0.000000e+00 1.000000e+00 5.000000e-01
-5.551115e-17 1.000000e+00 3.000000e-01
3.302130e-02 6.666667e-01 5.000000e-01
3.302130e-02 6.666667e-01 3.000000e-01
-2.000000e-01 1.000000e+00 5.000000e-01
-2.000000e-01 1.000000e+00 3.000000e-01
-1.691801e-01 6.666667e-01 5.000000e-01
-1.691801e-01 6.666667e-01 3.000000e-01
-4.000000e-01 1.000000e+00 5.000000e-01
-4.000000e-01 1.000000e+00 3.000000e-01
-3.713816e-01 6.666667e-01 5.000000e-01
-3.713816e-01 6.666667e-01 3.000000e-01
-6.000000e-01 1.000000e+00 5.000000e-01
-6.000000e-01 1.000000e+00 3.000000e-01
-5.735829e-01 6.666667e-01 5.000000e-01
-5.735829e-01 6.666667e-01 3.000000e-01
-8.000000e-01 1.000000e+00 5.000000e-01
-8.000000e-01 1.000000e+00 3.000000e-01
-7.757844e-01 6.666667e-01 5.000000e-01
-7.757844e-01 6.666667e-01 3.000000e-01
-1.000000e+00 1.000000e+00 5.000000e-01
-1.000000e+00 1.000000e+00 3.000000e-01
-9.779858e-01 6.666667e-01 5.000000e-01
-9.779858e-01 6.666667e-01 3.000000e-01
-1.200000e+00 1.000000e+00 5.000000e-01
-1.200000e+00 1.000000e+00 3.000000e-01
-1.180187e+00 6.666667e-01 5.000000e-01
-1.180187e+00 6.666667e-01 3.000000e-01
-2.000000e-01 1.000000e+00 1.000000e-01
-1.691801e-01 6.666667e-01 1.000000e-01
-4.000000e-01 1.000000e+00 1.000000e-01
-3.713816e-01 6.666667e-01 1.000000e-01
-6.000000e-01 1.000000e+00 1.000000e-01
-5.735829e-01 6.666667e-01 1.000000e-01
-8.000000e-01 1.000000e+00 1.000000e-01
-7.757844e-01 6.666667e-01 1.000000e-01
-1.000000e+00 1.000000e+00 1.000000e-01
-9.779858e-01 6.666667e-01 1.000000e-01
-1.200000e+00 1.000000e+00 1.000000e-01
-1.180187e+00 6.666667e-01 1.000000e-01
-2.000000e-01 1.000000e+00 -1.000000e-01
-1.691801e-01 6.666667e-01 -1.000000e-01
-4.000000e-01 1.000000e+00 -1.000000e-01
-3.713816e-01 6.666667e-01 -1.000000e-01
-6.000000e-01 1.000000e+00 -1.000000e-01
-5.735829e-01 6.666667e-01 -1.000000e-01
-8.000000e-01 1.000000e+00 -1.000000e-01
-7.757844e-01 6.666667e-01 -1.000000e-01
-1.000000e+00 1.000000e+00 -1.000000e-01
-9.779858e-01 6.666667e-01 -1.000000e-01
-1.200000e+00 1.000000e+00 -1.000000e-01
-1.180187e+00 6.666667e-01 -1.000000e-01
-1.400000e+00 1.000000e+00 -1.000000e-01
-1.382389e+00 6.666667e-01 -1.000000e-01
-2.000000e-01 1.000000e+00 -3.000000e-01
-1.691801e-01 6.666667e-01 -3.000000e-01
-4.000000e-01 1.000000e+00 -3.000000e-01
-3.713816e-01 6.666667e-01 -3.000000e-01
-6.000000e-01 1.000000e+00 -3.000000e-01
-5.735829e-01 6.666667e-01 -3.000000e-01
-8.000000e-01 1.000000e+00 -3.000000e-01
-7.757844e-01 6.666667e-01 -3.000000e-01
-1.000000e+00 1.000000e+00 -3.000000e-01
-9.779858e-01 6.666667e-01 -3.000000e-01
-1.200000e+00 1.000000e+00 -3.000000e-01
-1.180187e+00 6.666667e-01 -3.000000e-01
-1.400000e+00 1.000000e+00 -3.000000e-01
-1.382389e+00 6.666667e-01 -3.000000e-01
-2.000000e-01 1.000000e+00 -5.000000e-01
-1.691801e-01 6.666667e-01 -5.000000e-01
-4.000000e-01 1.000000e+00 -5.000000e-01
-3.713816e-01 6.666667e-01 -5.000000e-01
-6.000000e-01 1.000000e+00 -5.000000e-01
-5.735829e-01 6.666667e-01 -5.000000e-01
-8.000000e-01 1.000000e+00 -5.000000e-01
-7.757844e-01 6.666667e-01 -5.000000e-01
-1.000000e+00 1.000000e+00 -5.000000e-01
-9.779858e-01 6.666667e-01 -5.000000e-01
-1.200000e+00 1.000000e+00 -5.000000e-01
-1.180187e+00 6.666667e-01 -5.000000e-01
-1.400000e+00 1.000000e+00 -5.000000e-01
-1.382389e+00 6.666667e-01 -5.000000e-01
6.604260e-02 3.333333e-01 5.000000e-01
6.604260e-02 3.333333e-01 3.000000e-01
-1.383602e-01 3.333333e-01 5.000000e-01
-1.383602e-01 3.333333e-01 3.000000e-01
-3.427631e-01 3.333333e-01 5.000000e-01
-3.427631e-01 3.333333e-01 3.000000e-01
-5.471659e-01 3.333333e-01 5.000000e-01
-5.471659e-01 3.333333e-01 3.000000e-01
-7.515687e-01 3.333333e-01 5.000000e-01
-7.515687e-01 3.333333e-01 3.000000e-01
-9.559716e-01 3.333333e-01 5.000000e-01
-9.559716e-01 3.333333e-01 3.000000e-01
-1.160374e+00 3.333333e-01 5.000000e-01
-1.160374e+00 3.333333e-01 3.000000e-01
-1.383602e-01 3.333333e-01 1.000000e-01
-3.427631e-01 3.333333e-01 1.000000e-01
-5.471659e-01 3.333333e-01 1.000000e-01
-7.515687e-01 3.333333e-01 1.000000e-01
-9.559716e-01 3.333333e-01 1.000000e-01
-1.160374e+00 3.333333e-01 1.000000e-01
-1.383602e-01 3.333333e-01 -1.000000e-01
-3.427631e-01 3.333333e-01 -1.000000e-01
-5.471659e-01 3.333333e-01 -1.000000e-01
-7.515687e-01 3.333333e-01 -1.000000e-01
-9.559716e-01 3.333333e-01 -1.000000e-01
-1.160374e+00 3.333333e-01 -1.000000e-01
-1.364777e+00 3.333333e-01 -1.000000e-01
-1.383602e-01 3.333333e-01 -3.000000e-01
-3.427631e-01 3.333333e-01 -3.000000e-01
-5.471659e-01 3.333333e-01 -3.000000e-01
-7.515687e-01 3.333333e-01 -3.000000e-01
-9.559716e-01 3.333333e-01 -3.000000e-01
-1.160374e+00 3.333333e-01 -3.000000e-01
-1.364777e+00 3.333333e-01 -3.000000e-01
-1.383602e-01 3.333333e-01 -5.000000e-01
-3.427631e-01 3.333333e-01 -5.000000e-01
-5.471659e-01 3.333333e-01 -5.000000e-01
-7.515687e-01 3.333333e-01 -5.000000e-01
-9.559716e-01 3.333333e-01 -5.000000e-01
-1.160374e+00 3.333333e-01 -5.000000e-01
-1.364777e+00 3.333333e-01 -5.000000e-01
9.906390e-02 -2.775558e-17 5.000000e-01
9.906390e-02 -5.551115e-17 3.000000e-01
-1.075404e-01 0.000000e+00 5.000000e-01
-1.075404e-01 0.000000e+00 3.000000e-01
-3.141446e-01 0.000000e+00 5.000000e-01
-3.141446e-01 0.000000e+00 3.000000e-01
-5.207489e-01 0.000000e+00 5.000000e-01
-5.207489e-01 0.000000e+00 3.000000e-01
-7.273532e-01 -5.551115e-17 5.000000e-01
-7.273532e-01 0.000000e+00 3.000000e-01
-9.339574e-01 0.000000e+00 5.000000e-01
-9.339574e-01 0.000000e+00 3.000000e-01
-1.140562e+00 0.000000e+00 5.000000e-01
-1.140562e+00 0.000000e+00 3.000000e-01
-1.075404e-01 -2.775558e-17 1.000000e-01
-3.141446e-01 0.000000e+00 1.000000e-01
-5.207489e-01 -2.775558e-17 1.000000e-01
-7.273532e-01 0.000000e+00 1.000000e-01
-9.339574e-01 0.000000e+00 1.000000e-01
-1.140562e+00 -2.775558e-17 1.000000e-01
-1.075404e-01 0.000000e+00 -1.000000e-01
-3.141446e-01 0.000000e+00 -1.000000e-01
-5.207489e-01 -2.775558e-17 -1.000000e-01
-7.273532e-01 0.000000e+00 -1.000000e-01
-9.339574e-01 0.000000e+00 -1.000000e-01
-1.140562e+00 -2.775558e-17 -1.000000e-01
-1.347166e+00 0.000000e+00 -1.000000e-01
-1.075404e-01 -2.775558e-17 -3.000000e-01
-3.141446e-01 0.000000e+00 -3.000000e-01
-5.207489e-01 0.000000e+00 -3.000000e-01
-7.273532e-01 -2.775558e-17 -3.000000e-01
-9.339574e-01 -2.775558e-17 -3.000000e-01
-1.140562e+00 -2.775558e-17 -3.000000e-01
-1.347166e+00 -5.551115e-17 -3.000000e-01
-1.075404e-01 0.000000e+00 -5.000000e-01
-3.141446e-01 0.000000e+00 -5.000000e-01
-5.207489e-01 0.000000e+00 -5.000000e-01
-7.273532e-01 0.000000e+00 -5.000000e-01
-9.339574e-01 0.000000e+00 -5.000000e-01
-1.140562e+00 0.000000e+00 -5.000000e-01
-1.347166e+00 -5.551115e-17 -5.000000e-01
1.320852e-01 -3.333333e-01 5.000000e-01
1.320852e-01 -3.333333e-01 3.000000e-01
-7.672048e-02 -3.333333e-01 5.000000e-01
-7.672048e-02 -3.333333e-01 3.000000e-01
-2.855262e-01 -3.333333e-01 5.000000e-01
-2.855262e-01 -3.333333e-01 3.000000e-01
-4.943318e-01 -3.333333e-01 5.000000e-01
-4.943318e-01 -3.333333e-01 3.000000e-01
-7.031375e-01 -3.333333e-01 5.000000e-01
-7.031375e-01 -3.333333e-01 3.000000e-01
-9.119432e-01 -3.333333e-01 5.000000e-01
-9.119432e-01 -3.333333e-01 3.000000e-01
-7.672048e-02 -3.333333e-01 1.000000e-01
-2.855262e-01 -3.333333e-01 1.000000e-01
-4.943318e-01 -3.333333e-01 1.000000e-01
-7.031375e-01 -3.333333e-01 1.000000e-01
-9.119432e-01 -3.333333e-01 1.000000e-01
-7.672048e-02 -3.333333e-01 -1.000000e-01
-2.855262e-01 -3.333333e-01 -1.000000e-01
-4.943318e-01 -3.333333e-01 -1.000000e-01
-7.031375e-01 -3.333333e-01 -1.000000e-01
-9.119432e-01 -3.333333e-01 -1.000000e-01
-1.120749e+00 -3.333333e-01 -1.000000e-01
-1.329555e+00 -3.333333e-01 -1.000000e-01
-7.672048e-02 -3.333333e-01 -3.000000e-01
-2.855262e-01 -3.333333e-01 -3.000000e-01
-4.943318e-01 -3.333333e-01 -3.000000e-01
-7.031375e-01 -3.333333e-01 -3.000000e-01
-9.119432e-01 -3.333333e-01 -3.000000e-01
-1.120749e+00 -3.333333e-01 -3.000000e-01
-1.329555e+00 -3.333333e-01 -3.000000e-01
-7.672048e-02 -3.333333e-01 -5.000000e-01
-2.855262e-01 -3.333333e-01 -5.000000e-01
-4.943318e-01 -3.333333e-01 -5.000000e-01
-7.031375e-01 -3.333333e-01 -5.000000e-01
-9.119432e-01 -3.333333e-01 -5.000000e-01
-1.120749e+00 -3.333333e-01 -5.000000e-01
-1.329555e+00 -3.333333e-01 -5.000000e-01
1.651065e-01 -6.666667e-01 5.000000e-01
1.651065e-01 -6.666667e-01 3.000000e-01
-4.590059e-02 -6.666667e-01 5.000000e-01
-4.590059e-02 -6.666667e-01 3.000000e-01
-2.569077e-01 -6.666667e-01 5.000000e-01
-2.569077e-01 -6.666667e-01 3.000000e-01
-4.679148e-01 -6.666667e-01 5.000000e-01
-4.679148e-01 -6.666667e-01 3.000000e-01
-6.789219e-01 -6.666667e-01 5.000000e-01
-6.789219e-01 -6.666667e-01 3.000000e-01
-8.899290e-01 -6.666667e-01 5.000000e-01
-8.899290e-01 -6.666667e-01 3.000000e-01
-4.590059e-02 -6.666667e-01 1.000000e-01
-2.569077e-01 -6.666667e-01 1.000000e-01
-4.679148e-01 -6.666667e-01 1.000000e-01
-6.789219e-01 -6.666667e-01 1.000000e-01
-8.899290e-01 -6.666667e-01 1.000000e-01
-4.590059e-02 -6.666667e-01 -1.000000e-01
-2.569077e-01 -6.666667e-01 -1.000000e-01
-4.679148e-01 -6.666667e-01 -1.000000e-01
-6.789219e-01 -6.666667e-01 -1.000000e-01
-8.899290e-01 -6.666667e-01 -1.000000e-01
-1.100936e+00 -6.666667e-01 -1.000000e-01
-1.311943e+00 -6.666667e-01 -1.000000e-01
-4.590059e-02 -6.666667e-01 -3.000000e-01
-2.569077e-01 -6.666667e-01 -3.000000e-01
-4.679148e-01 -6.666667e-01 -3.000000e-01
-6.789219e-01 -6.666667e-01 -3.000000e-01
-8.899290e-01 -6.666667e-01 -3.000000e-01
-1.100936e+00 -6.666667e-01 -3.000000e-01
-1.311943e+00 -6.666667e-01 -3.000000e-01
-4.590059e-02 -6.666667e-01 -5.000000e-01
-2.569077e-01 -6.666667e-01 -5.000000e-01
-4.679148e-01 -6.666667e-01 -5.000000e-01
-6.789219e-01 -6.666667e-01 -5.000000e-01
-8.899290e-01 -6.666667e-01 -5.000000e-01
-1.100936e+00 -6.666667e-01 -5.000000e-01
-1.311943e+00 -6.666667e-01 -5.000000e-01
1.981278e-01 -1.000000e+00 5.000000e-01
1.981278e-01 -1.000000e+00 3.000000e-01
[...]
CELL_DATA 900
SCALARS Density double 1
LOOKUP_TABLE default
1.000000e+00
1.000000e+00
1.000000e+00
1.000000e+00
1.000000e+00
1.000000e+00
1.000000e+00
1.000000e+00
1.000000e+00
1.000000e+00
1.000000e+00
1.000000e+00
1.000000e+00
1.000000e+00
1.000000e+00
1.000000e+00
1.000000e+00
1.000000e+00
1.000000e+00
1.000000e+00
1.000000e+00
1.000000e+00
1.000000e+00
1.000000e+00
1.000000e+00
1.000000e+00
1.000000e+00
1.000000e+00
1.000000e+00
1.000000e+00
1.000000e+00
1.000000e+00
1.000000e+00
1.000000e+00
1.000000e+00
1.000000e+00
1.000000e+00
1.000000e+00
1.000000e+00
1.000000e+00
1.000000e+00
1.000000e+00
1.000000e+00
1.000000e+00
1.000000e+00
1.000000e+00
1.000000e+00
1.000000e+00
1.000000e+00
1.000000e+00
1.000000e+00
1.000000e+00
1.000000e+00
1.000000e+00
1.000000e+00
1.000000e+00
1.000000e+00
1.000000e+00
1.000000e+00
1.000000e+00
1.000000e+00
1.000000e+00
1.000000e+00
1.000000e+00
1.000000e+00
1.000000e+00
1.000000e+00
1.000000e+00
1.000000e+00
1.000000e+00
1.000000e+00
1.000000e+00
1.000000e+00
1.000000e+00
1.000000e+00
1.000000e+00
1.000000e+00
1.000000e+00
1.000000e+00
1.000000e+00
1.000000e+00
1.000000e+00
1.000000e+00
1.000000e+00
1.000000e+00
1.000000e+00
1.000000e+00
1.000000e+00
1.000000e+00
1.000000e+00
1.000000e+00
1.000000e+00
1.000000e+00
1.000000e+00
1.000000e+00
1.000000e+00
1.000000e+00
1.000000e+00
1.000000e+00
1.000000e+00
1.000000e+00
1.000000e+00
1.000000e+00
1.000000e+00
1.000000e+00
1.000000e+00
1.000000e+00
1.000000e+00
1.000000e+00
1.000000e+00
1.000000e+00
1.000000e+00
1.000000e+00
1.000000e+00
1.000000e+00
1.000000e+00
1.000000e+00
1.000000e+00
1.000000e+00
1.000000e+00
1.000000e+00
1.000000e+00
1.000000e+00
1.000000e+00
1.000000e+00
1.000000e+00
1.000000e+00
1.000000e+00
1.000000e+00
1.000000e+00
1.000000e+00
1.000000e+00
1.000000e+00
1.000000e+00
1.000000e+00
1.000000e+00
1.000000e+00
1.000000e+00
1.000000e+00
1.000000e+00
1.000000e+00
1.000000e+00
1.000000e+00
1.000000e+00
1.000000e+00
1.000000e+00
1.000000e+00
1.000000e+00
1.000000e+00
1.000000e+00
1.000000e+00
1.000000e+00
1.000000e+00
1.000000e+00
1.000000e+00
1.000000e+00
1.000000e+00
1.000000e+00
1.000000e+00
1.000000e+00
1.000000e+00
1.000000e+00
1.000000e+00
1.000000e+00
1.000000e+00
1.000000e+00
1.000000e+00
1.000000e+00
1.000000e+00
1.000000e+00
1.000000e+00
1.000000e+00
1.000000e+00
1.000000e+00
1.000000e+00
1.000000e+00
1.000000e+00
1.000000e+00
1.000000e+00
1.000000e+00
1.000000e+00
1.000000e+00
1.000000e+00
1.000000e+00
1.000000e+00
1.000000e+00
1.000000e+00
1.000000e+00
1.000000e+00
1.000000e+00
1.000000e+00
1.000000e+00
1.000000e+00
1.000000e+00
1.000000e+00
1.000000e+00
1.000000e+00
1.000000e+00
1.000000e+00
1.000000e+00
1.000000e+00
1.000000e+00
1.000000e+00
1.000000e+00
1.000000e+00
1.000000e+00
1.000000e+00
1.000000e+00
1.000000e+00
1.000000e+00
1.000000e+00
1.000000e+00
1.000000e+00
1.000000e+00
1.000000e+00
1.000000e+00
1.000000e+00
1.000000e+00
1.000000e+00
1.000000e+00
1.000000e+00
1.000000e+00
1.000000e+00
1.000000e+00
1.000000e+00
1.000000e+00
1.000000e+00
1.000000e+00
1.000000e+00
1.000000e+00
1.000000e+00
1.000000e+00
1.000000e+00
1.000000e+00
1.000000e+00
1.000000e+00
1.000000e+00
1.000000e+00
1.000000e+00
1.000000e+00
1.000001e+00
1.000056e+00
1.001055e+00
1.023709e+00
1.000000e+00
1.000000e+00
1.000000e+00
1.000000e+00
1.000001e+00
1.000056e+00
1.001067e+00
1.023922e+00
1.000000e+00
1.000000e+00
1.000000e+00
1.000001e+00
1.000056e+00
1.001068e+00
1.023924e+00
1.000000e+00
1.000000e+00
1.000000e+00
1.000001e+00
1.000056e+00
1.001067e+00
1.023922e+00
1.000000e+00
1.000000e+00
1.000000e+00
1.000001e+00
1.000056e+00
1.001055e+00
1.023709e+00
1.000000e+00
1.000000e+00
1.000000e+00
1.000000e+00
1.000001e+00
1.000054e+00
1.001039e+00
1.023589e+00
1.000000e+00
1.000000e+00
1.000000e+00
1.000000e+00
1.000001e+00
1.000055e+00
1.001051e+00
1.023802e+00
1.000000e+00
1.000000e+00
1.000000e+00
1.000001e+00
1.000055e+00
1.001051e+00
1.023804e+00
1.000000e+00
1.000000e+00
1.000000e+00
1.000001e+00
1.000055e+00
1.001051e+00
1.023802e+00
1.000000e+00
1.000000e+00
1.000000e+00
1.000001e+00
1.000054e+00
1.001039e+00
1.023589e+00
1.000000e+00
1.000000e+00
1.000000e+00
1.000000e+00
1.000001e+00
1.000053e+00
1.001016e+00
1.023346e+00
1.000000e+00
1.000000e+00
1.000000e+00
1.000000e+00
1.000001e+00
1.000053e+00
1.001028e+00
1.023557e+00
1.000000e+00
1.000000e+00
1.000000e+00
1.000001e+00
1.000053e+00
1.001028e+00
1.023559e+00
1.000000e+00
1.000000e+00
1.000000e+00
1.000001e+00
1.000053e+00
1.001028e+00
1.023557e+00
1.000000e+00
1.000000e+00
1.000000e+00
1.000001e+00
1.000053e+00
1.001016e+00
1.023346e+00
1.000000e+00
1.000000e+00
1.000000e+00
1.000000e+00
1.000001e+00
1.000051e+00
1.000994e+00
1.023107e+00
1.000000e+00
1.000000e+00
1.000000e+00
1.000000e+00
1.000001e+00
1.000052e+00
1.001006e+00
1.023315e+00
1.000000e+00
1.000000e+00
1.000000e+00
1.000001e+00
1.000052e+00
1.001006e+00
1.023318e+00
1.000000e+00
1.000000e+00
1.000000e+00
1.000001e+00
1.000052e+00
1.001006e+00
1.023315e+00
1.000000e+00
1.000000e+00
1.000000e+00
1.000001e+00
1.000051e+00
1.000994e+00
1.023107e+00
1.000000e+00
1.000000e+00
1.000000e+00
1.000000e+00
1.000000e+00
1.000001e+00
1.000049e+00
1.000973e+00
1.022872e+00
1.000000e+00
1.000000e+00
1.000000e+00
1.000000e+00
1.000000e+00
1.000001e+00
1.000050e+00
1.000984e+00
1.023078e+00
1.000000e+00
1.000000e+00
1.000000e+00
1.000001e+00
1.000050e+00
1.000985e+00
1.023081e+00
1.000000e+00
1.000000e+00
1.000000e+00
1.000001e+00
1.000050e+00
1.000984e+00
1.023078e+00
1.000000e+00
1.000000e+00
1.000000e+00
1.000001e+00
1.000049e+00
1.000973e+00
1.022872e+00
1.000000e+00
1.000000e+00
1.000000e+00
1.000000e+00
1.000000e+00
1.000001e+00
1.000047e+00
1.000945e+00
1.022521e+00
1.000000e+00
1.000000e+00
1.000000e+00
1.000000e+00
1.000000e+00
1.000001e+00
1.000048e+00
1.000956e+00
1.022724e+00
1.000000e+00
1.000000e+00
1.000000e+00
1.000001e+00
1.000048e+00
1.000956e+00
1.022726e+00
1.000000e+00
1.000000e+00
1.000000e+00
1.000001e+00
1.000048e+00
1.000956e+00
1.022724e+00
1.000000e+00
1.000000e+00
1.000000e+00
1.000001e+00
1.000047e+00
1.000945e+00
1.022521e+00
1.000000e+00
1.000000e+00
1.000000e+00
1.000000e+00
1.000000e+00
1.000000e+00
1.000000e+00
1.000000e+00
1.000000e+00
1.000000e+00
1.000000e+00
1.000000e+00
1.000000e+00
1.000000e+00
1.000000e+00
1.000000e+00
1.000000e+00
1.000000e+00
1.000000e+00
1.000000e+00
1.000000e+00
1.000000e+00
1.000000e+00
1.000000e+00
1.000000e+00
1.000000e+00
1.000000e+00
1.000000e+00
1.000000e+00
1.000000e+00
1.000000e+00
1.000000e+00
1.000000e+00
1.000000e+00
1.000000e+00
1.000000e+00
1.000000e+00
1.000000e+00
1.000000e+00
1.000000e+00
1.000000e+00
1.000000e+00
1.000000e+00
1.000000e+00
1.000000e+00
1.000000e+00
1.000000e+00
1.000000e+00
1.000000e+00
1.000000e+00
1.000000e+00
1.000000e+00
1.000000e+00
1.000000e+00
1.000000e+00
1.000000e+00
1.000000e+00
1.000000e+00
1.000000e+00
1.000000e+00
1.000000e+00
1.000000e+00
1.000000e+00
1.000000e+00
1.000000e+00
1.000000e+00
1.000000e+00
1.000000e+00
1.000000e+00
1.000000e+00
1.000000e+00
1.000000e+00
1.000000e+00
1.000000e+00
1.000000e+00
1.000000e+00
1.000000e+00
1.000000e+00
1.000000e+00
1.000000e+00
1.000000e+00
1.000000e+00
1.000000e+00
1.000000e+00
1.000000e+00
1.000000e+00
1.000000e+00
1.000000e+00
1.000000e+00
1.000000e+00
1.000000e+00
1.000000e+00
1.000000e+00
1.000000e+00
1.000000e+00
1.000000e+00
1.000000e+00
1.000000e+00
1.000000e+00
1.000000e+00
1.000000e+00
1.000000e+00
1.000000e+00
1.000000e+00
1.000000e+00
1.000000e+00
1.000000e+00
1.000000e+00
1.000000e+00
1.000000e+00
1.000000e+00
1.000000e+00
1.000000e+00
1.000000e+00
1.000000e+00
1.000000e+00
1.000000e+00
1.000000e+00
1.000000e+00
1.000000e+00
1.000000e+00
1.000000e+00
1.000000e+00
1.000000e+00
1.000000e+00
1.000000e+00
1.000000e+00
1.000000e+00
1.000000e+00
1.000000e+00
1.000000e+00
1.000000e+00
1.000000e+00
1.000000e+00
1.000000e+00
1.000000e+00
1.000000e+00
1.000000e+00
1.000000e+00
1.000000e+00
1.000000e+00
1.000000e+00
1.000000e+00
1.000000e+00
1.000000e+00
1.000000e+00
1.000000e+00
1.000000e+00
1.000000e+00
1.000000e+00
1.000000e+00
1.000000e+00
1.000000e+00
1.000000e+00
1.000000e+00
1.000000e+00
1.000000e+00
1.000000e+00
1.000000e+00
1.000000e+00
1.000000e+00
1.000000e+00
1.000000e+00
1.000000e+00
1.000000e+00
1.000000e+00
1.000000e+00
1.000000e+00
1.000000e+00
1.000000e+00
1.000000e+00
1.000000e+00
1.000000e+00
1.000000e+00
1.000000e+00
1.000000e+00
1.000000e+00
1.000000e+00
1.000000e+00
1.000000e+00
1.000000e+00
1.000000e+00
1.000000e+00
1.000000e+00
1.000000e+00
1.000000e+00
1.000000e+00
1.000000e+00
1.000000e+00
1.000000e+00
1.000000e+00
1.000000e+00
1.000000e+00
1.000000e+00
1.000000e+00
1.000000e+00
1.000000e+00
1.000000e+00
1.000000e+00
1.000000e+00
1.000000e+00
1.000000e+00
1.000000e+00
1.000000e+00
1.000000e+00
1.000000e+00
1.000000e+00
1.000000e+00
1.000000e+00
1.000000e+00
1.000000e+00
1.000000e+00
1.000000e+00
1.000000e+00
1.000000e+00
1.000000e+00
1.000000e+00
1.000000e+00
1.000000e+00
1.000000e+00
1.000000e+00
1.000000e+00
1.000000e+00
1.000000e+00
1.000000e+00
1.000000e+00
1.000000e+00
1.000000e+00
1.000000e+00
1.000000e+00
1.000000e+00
1.000000e+00
1.000000e+00
1.000000e+00
1.000000e+00
1.000000e+00
1.000000e+00
1.000000e+00
1.000000e+00
1.000000e+00
1.000000e+00
1.000000e+00
1.000000e+00
1.000000e+00
1.000000e+00
1.000000e+00
1.000000e+00
1.000000e+00
1.000000e+00
1.000000e+00
1.000000e+00
1.000000e+00
1.000000e+00
1.000000e+00
1.000000e+00
1.000000e+00
1.000000e+00
1.000000e+00
1.000000e+00
1.000000e+00
1.000000e+00
1.000000e+00
1.000000e+00
1.000000e+00
1.000000e+00
1.000000e+00
1.000000e+00
1.000000e+00
1.000000e+00
1.000000e+00
1.000000e+00
1.000000e+00
1.000000e+00
1.000000e+00
1.000000e+00
1.000000e+00
1.000000e+00
1.000000e+00
1.000000e+00
1.000000e+00
1.000000e+00
1.000000e+00
1.000000e+00
1.000000e+00
1.000000e+00
1.000000e+00
1.000000e+00
1.000000e+00
1.000000e+00
1.000000e+00
1.000000e+00
1.000000e+00
1.000000e+00
1.000000e+00
1.000000e+00
1.000000e+00
1.000000e+00
1.000000e+00
1.000000e+00
1.000000e+00
1.000000e+00
1.000000e+00
1.000000e+00
1.000000e+00
1.000000e+00
1.000000e+00
1.000000e+00
1.000000e+00
1.000000e+00
1.000000e+00
1.000000e+00
1.000000e+00
1.000000e+00
1.000000e+00
1.000000e+00
1.000000e+00
1.000000e+00
1.000000e+00
1.000000e+00
1.000000e+00
1.000000e+00
1.000000e+00
1.000000e+00
1.000000e+00
1.000000e+00
1.000000e+00
1.000000e+00
1.000000e+00
1.000000e+00
1.000000e+00
1.000000e+00
1.000000e+00
1.000000e+00
1.000000e+00
1.000000e+00
1.000000e+00
1.000000e+00
1.000000e+00
1.000000e+00
1.000000e+00
1.000000e+00
1.000000e+00
1.000000e+00
1.000000e+00
1.000000e+00
1.000000e+00
1.000000e+00
1.000000e+00
1.000000e+00
1.000000e+00
1.000000e+00
1.000000e+00
1.000000e+00
1.000000e+00
1.000000e+00
1.000000e+00
1.000000e+00
1.000000e+00
1.000000e+00
1.000000e+00
1.000000e+00
1.000000e+00
1.000000e+00
1.000000e+00
1.000000e+00
1.000000e+00
1.000000e+00
1.000000e+00
1.000000e+00
1.000000e+00
1.000000e+00
1.000000e+00
1.000000e+00
1.000000e+00
1.000000e+00
1.000000e+00
1.000000e+00
1.000000e+00
1.000000e+00
1.000000e+00
1.000000e+00
1.000000e+00
1.000000e+00
1.000000e+00
1.000000e+00
1.000000e+00
1.000000e+00
1.000000e+00
1.000000e+00
1.000000e+00
1.000000e+00
1.000000e+00
1.000000e+00
1.000000e+00
1.000000e+00
1.000000e+00
1.000000e+00
1.000000e+00
1.000000e+00
1.000000e+00
1.000000e+00
1.000000e+00
1.000000e+00
1.000000e+00
1.000000e+00
1.000000e+00
1.000000e+00
1.000000e+00
1.000000e+00
1.000000e+00
1.000000e+00
1.000000e+00
1.000000e+00
1.000000e+00
1.000000e+00
1.000000e+00
1.000000e+00
1.000000e+00
1.000000e+00
1.000000e+00
1.000000e+00
1.000000e+00
1.000000e+00
1.000000e+00
1.000000e+00
1.000000e+00
1.000000e+00
1.000000e+00
1.000000e+00
1.000000e+00
1.000000e+00
1.000000e+00
1.000000e+00
1.000000e+00
1.000000e+00
1.000000e+00
1.000000e+00
1.000000e+00
VECTORS Momentum double
0.000000e+00 4.163336e-18 -5.429346e-18
0.000000e+00 -1.387779e-18 4.400067e-18
-2.220446e-18 0.000000e+00 1.625241e-33
0.000000e+00 -3.053113e-18 1.839690e-30
2.220446e-18 2.220446e-18 2.084979e-27
2.220446e-20 1.665335e-18 2.475320e-24
9.478028e-17 6.044055e-18 2.943856e-21
1.303792e-14 7.030152e-16 3.087391e-18
2.220446e-18 -1.387779e-18 5.429345e-18
-2.220446e-18 1.110223e-18 -4.400067e-18
6.661338e-18 1.110223e-18 8.974524e-35
0.000000e+00 2.498002e-18 1.231816e-31
-4.440892e-18 5.551115e-19 1.675397e-28
2.220446e-20 1.942890e-18 2.134599e-25
9.320376e-17 4.450885e-18 2.395013e-22
1.324410e-14 7.128159e-16 2.254142e-19
0.000000e+00 -3.330669e-18 2.200033e-18
6.661338e-18 2.220446e-18 -1.718639e-44
0.000000e+00 8.326673e-19 -1.553715e-41
-6.661338e-18 -2.775558e-18 -1.327324e-38
2.220446e-20 -1.942890e-18 -1.105420e-35
9.753363e-17 6.825374e-18 -8.957174e-33
1.323167e-14 7.141662e-16 -3.550524e-30
1.029276e-12 4.877871e-14 -1.361610e-27
-2.220446e-18 3.330669e-18 -2.200033e-18
6.661338e-18 1.110223e-18 -8.976931e-35
0.000000e+00 2.498002e-18 -1.232432e-31
-6.661338e-18 1.942890e-18 -1.676611e-28
2.220446e-20 1.942890e-18 -2.136395e-25
9.320376e-17 4.450885e-18 -2.396958e-22
1.324410e-14 7.128575e-16 -2.255710e-19
1.029121e-12 4.877081e-14 -1.733269e-16
0.000000e+00 8.326673e-19 -1.366423e-36
-4.440892e-18 5.551115e-19 -1.625382e-33
0.000000e+00 -3.053113e-18 -1.839901e-30
2.220446e-18 1.665335e-18 -2.085319e-27
2.220446e-20 1.665335e-18 -2.475802e-24
9.478028e-17 6.044055e-18 -2.944356e-21
1.303792e-14 7.030277e-16 -3.087734e-18
1.013846e-12 4.805748e-14 -6.976382e-16
-1.998401e-19 -1.110223e-18 9.004587e-40
-2.220446e-18 -8.326673e-19 1.164170e-36
8.881784e-18 -2.498002e-18 1.394934e-33
6.661338e-18 2.775558e-19 1.561000e-30
-1.110223e-17 -1.942890e-18 1.681300e-27
0.000000e+00 1.387779e-18 1.859290e-24
8.414981e-17 4.095936e-18 2.207726e-21
1.187587e-14 6.361647e-16 2.526711e-18
-6.661338e-18 -1.387779e-18 5.787663e-41
6.661338e-18 1.665335e-18 7.636967e-38
-4.440892e-18 -2.775558e-18 9.996050e-35
6.661338e-18 -1.387779e-18 1.303712e-31
-6.661338e-18 -2.775558e-19 1.658953e-28
0.000000e+00 -1.379452e-18 1.978522e-25
8.164071e-17 5.807067e-18 2.116499e-22
1.205257e-14 6.488869e-16 1.954064e-19
-6.661338e-18 8.326673e-19 -2.232965e-47
0.000000e+00 1.387779e-18 -2.213983e-44
0.000000e+00 -3.053113e-18 -1.367401e-41
-6.661338e-18 0.000000e+00 1.208014e-38
2.220446e-18 -1.110223e-18 6.177271e-35
7.542346e-17 4.960522e-18 1.167197e-31
1.205796e-14 6.466664e-16 -6.661041e-30
9.520709e-13 4.482839e-14 -5.118023e-28
6.661338e-18 -5.551115e-19 -7.630787e-38
-4.440892e-18 -2.775558e-18 -9.989749e-35
8.881784e-18 -2.220446e-18 -1.303175e-31
-6.661338e-18 -2.775558e-19 -1.658611e-28
0.000000e+00 -1.387779e-18 -1.978388e-25
8.326163e-17 3.950219e-18 -2.116474e-22
1.205190e-14 6.468135e-16 -1.954081e-19
9.519308e-13 4.482222e-14 -1.507593e-16
-2.220446e-18 -1.387779e-18 -1.162654e-36
6.661338e-18 -8.326673e-19 -1.393956e-33
6.661338e-18 2.775558e-19 -1.566197e-30
-1.110223e-17 -1.942890e-18 -1.718021e-27
0.000000e+00 1.387779e-18 -1.976775e-24
8.375013e-17 3.819768e-18 -2.412026e-21
1.187605e-14 6.369599e-16 -2.704027e-18
9.377257e-13 4.416644e-14 -6.246297e-16
-1.184164e-16 -1.113276e-17 5.154759e-18
1.079137e-17 1.110223e-18 1.047940e-24
0.000000e+00 -1.387779e-18 2.365132e-22
-4.440892e-18 -3.608225e-18 3.967365e-20
0.000000e+00 8.326673e-19 4.401001e-18
-2.220446e-18 -1.662559e-18 1.758637e-24
7.366993e-17 3.899272e-18 2.033318e-21
1.075206e-14 5.761729e-16 2.314246e-18
-6.972201e-18 1.942890e-18 -2.486513e-18
4.440892e-18 2.775558e-19 -2.200587e-18
8.881784e-18 1.665335e-18 -1.984745e-20
-4.440892e-18 2.775558e-19 -2.200491e-18
-2.220446e-18 1.110223e-18 -1.180222e-22
0.000000e+00 1.387779e-18 -1.981785e-20
6.960651e-17 5.405012e-18 -2.200276e-18
1.090882e-14 5.862702e-16 1.846502e-19
0.000000e+00 8.326673e-19 2.200468e-18
-2.220446e-18 8.326673e-19 1.890448e-44
2.220446e-18 8.326673e-19 1.865556e-41
-2.220446e-18 8.326673e-19 1.665497e-38
-2.220446e-18 1.110223e-18 1.361027e-35
6.747489e-17 5.892122e-18 1.011891e-32
1.090398e-14 5.880466e-16 2.845261e-30
8.736371e-13 4.115140e-14 -1.428442e-26
0.000000e+00 0.000000e+00 -2.200350e-18
6.661338e-18 1.387779e-18 1.972867e-20
-6.661338e-18 1.942890e-18 2.180536e-18
-2.220446e-18 5.551115e-19 -2.220329e-18
0.000000e+00 1.110223e-18 -2.200745e-18
6.587616e-17 4.895697e-18 -3.941981e-20
1.091053e-14 5.857179e-16 -4.359681e-18
8.735522e-13 4.114766e-14 -1.237041e-16
1.121325e-17 1.110223e-18 -1.035681e-36
2.220446e-18 1.387779e-18 -1.304374e-33
-4.440892e-18 -3.608225e-18 -1.514160e-30
0.000000e+00 1.387779e-18 -1.637737e-27
-6.661338e-18 -8.326673e-19 -1.736677e-24
7.382536e-17 3.889558e-18 -1.959318e-21
1.076652e-14 5.747255e-16 -2.228180e-18
8.604630e-13 4.053054e-14 -5.447626e-16
1.188081e-16 9.774183e-18 -9.719782e-19
4.796163e-18 8.326673e-19 -9.263601e-25
0.000000e+00 0.000000e+00 -2.113114e-22
2.220446e-18 5.551115e-19 -3.582539e-20
-2.220446e-18 -2.220446e-18 -4.016561e-18
-6.661338e-18 -5.551115e-19 2.580358e-24
5.743152e-17 3.129898e-18 5.266781e-21
9.790626e-15 5.226238e-16 8.483820e-18
-6.306067e-18 -2.775558e-19 5.460630e-19
2.220446e-18 -2.775558e-19 1.955876e-18
8.881784e-18 1.942890e-18 1.776617e-20
0.000000e+00 -1.665335e-18 1.990779e-18
-6.661338e-18 -1.665335e-18 1.072838e-22
0.000000e+00 -1.110223e-18 1.820836e-20
5.831660e-17 3.770217e-18 2.045311e-18
9.942673e-15 5.329545e-16 3.487277e-18
0.000000e+00 8.326673e-19 -1.955771e-18
-8.881784e-18 -2.775558e-18 8.801098e-45
2.220446e-18 8.326673e-19 1.172372e-41
-8.881784e-18 2.775558e-19 1.874575e-38
4.440892e-18 1.110223e-18 3.696768e-35
5.396453e-17 5.496614e-18 6.654646e-32
9.943361e-15 5.344978e-16 3.473277e-30
8.024291e-13 3.783663e-14 -6.323859e-28
2.220446e-18 2.220446e-18 1.955667e-18
8.881784e-18 1.942890e-18 -1.766005e-20
2.220446e-18 -1.942890e-18 -1.972759e-18
-8.881784e-18 -1.665335e-18 2.026340e-18
0.000000e+00 -1.110223e-18 2.025651e-18
6.024839e-17 3.210942e-18 -2.414792e-20
9.941407e-15 5.329296e-16 -5.899098e-18
8.023470e-13 3.783118e-14 -1.261917e-16
6.261658e-18 -1.387779e-18 2.449075e-19
-2.220446e-18 -2.775558e-19 1.016417e-23
2.220446e-18 -1.110223e-18 1.725599e-21
-6.661338e-18 -2.498002e-18 1.939990e-19
0.000000e+00 1.110223e-18 1.765684e-19
5.743152e-17 3.146551e-18 1.912823e-19
9.789916e-15 5.250607e-16 -4.214988e-18
7.903285e-13 3.725629e-14 -5.215413e-16
-2.153833e-18 2.498002e-18 5.046178e-40
8.881784e-18 1.387779e-18 6.971727e-37
-2.220446e-18 1.387779e-18 8.975005e-34
-2.220446e-18 0.000000e+00 1.082016e-30
-4.440892e-18 8.326673e-19 1.293595e-27
0.000000e+00 1.665335e-18 1.928059e-24
4.823324e-17 4.561347e-18 4.007916e-21
-6.661338e-18 2.498002e-18 3.313352e-41
2.220446e-18 1.110223e-18 5.374416e-38
8.881784e-18 5.551115e-19 8.638844e-35
0.000000e+00 2.498002e-18 1.356284e-31
-6.661338e-18 2.775558e-18 2.263131e-28
0.000000e+00 -2.775558e-19 5.250234e-25
4.853574e-17 2.218887e-18 1.480313e-21
-4.440892e-18 -1.110223e-18 -1.680989e-48
0.000000e+00 -1.665335e-18 -1.382228e-45
0.000000e+00 -5.551115e-19 -1.057213e-42
-4.440892e-18 -1.665335e-18 -9.217191e-40
2.220446e-18 -2.498002e-18 -1.319127e-36
4.209645e-17 1.988516e-18 -2.418975e-33
9.058253e-15 4.827272e-16 -1.330148e-31
7.376266e-13 3.470604e-14 -4.049204e-28
2.220446e-18 1.110223e-18 -5.375826e-38
8.881784e-18 5.551115e-19 -8.636919e-35
0.000000e+00 2.498002e-18 -1.355317e-31
-6.661338e-18 2.775558e-18 -2.260938e-28
0.000000e+00 2.498002e-18 -5.246884e-25
4.853574e-17 2.218887e-18 -1.479970e-21
9.057254e-15 4.852322e-16 -3.007834e-18
7.375268e-13 3.470365e-14 -1.175972e-16
8.881784e-18 1.110223e-18 -6.876947e-37
-2.220446e-18 1.387779e-18 -8.891946e-34
-2.220446e-18 -2.775558e-19 -1.077060e-30
-6.661338e-18 0.000000e+00 -1.293302e-27
0.000000e+00 2.220446e-18 -1.928777e-24
4.834427e-17 4.831964e-18 -3.992489e-21
8.914566e-15 4.809759e-16 -7.307371e-18
7.264175e-13 3.418994e-14 -4.868593e-16
0.000000e+00 -2.775558e-19 3.729340e-40
-2.220446e-18 0.000000e+00 5.115094e-37
2.220446e-18 1.110223e-18 6.482445e-34
6.661338e-18 8.326673e-19 7.571025e-31
-1.554312e-17 5.551115e-19 8.230624e-28
8.881784e-18 -2.914335e-18 8.817919e-25
3.512759e-17 2.076766e-18 1.046733e-21