# vtk DataFile Version 2.0
Simplicial Mesh Example
ASCII
DATASET UNSTRUCTURED_GRID
POINTS 1302 double
0.000000e+00 1.000000e+00 5.000000e-01
-5.551115e-17 1.000000e+00 3.000000e-01
3.302130e-02 6.666667e-01 5.000000e-01
3.302130e-02 6.666667e-01 3.000000e-01
-2.000000e-01 1.000000e+00 5.000000e-01
-2.000000e-01 1.000000e+00 3.000000e-01
-1.691801e-01 6.666667e-01 5.000000e-01
-1.691801e-01 6.666667e-01 3.000000e-01
-4.000000e-01 1.000000e+00 5.000000e-01
-4.000000e-01 1.000000e+00 3.000000e-01
-3.713816e-01 6.666667e-01 5.000000e-01
-3.713816e-01 6.666667e-01 3.000000e-01
-6.000000e-01 1.000000e+00 5.000000e-01
-6.000000e-01 1.000000e+00 3.000000e-01
-5.735829e-01 6.666667e-01 5.000000e-01
-5.735829e-01 6.666667e-01 3.000000e-01
-8.000000e-01 1.000000e+00 5.000000e-01
-8.000000e-01 1.000000e+00 3.000000e-01
-7.757844e-01 6.666667e-01 5.000000e-01
-7.757844e-01 6.666667e-01 3.000000e-01
-1.000000e+00 1.000000e+00 5.000000e-01
-1.000000e+00 1.000000e+00 3.000000e-01
-9.779858e-01 6.666667e-01 5.000000e-01
-9.779858e-01 6.666667e-01 3.000000e-01
-1.200000e+00 1.000000e+00 5.000000e-01
-1.200000e+00 1.000000e+00 3.000000e-01
-1.180187e+00 6.666667e-01 5.000000e-01
-1.180187e+00 6.666667e-01 3.000000e-01
-2.000000e-01 1.000000e+00 1.000000e-01
-1.691801e-01 6.666667e-01 1.000000e-01
-4.000000e-01 1.000000e+00 1.000000e-01
-3.713816e-01 6.666667e-01 1.000000e-01
-6.000000e-01 1.000000e+00 1.000000e-01
-5.735829e-01 6.666667e-01 1.000000e-01
-8.000000e-01 1.000000e+00 1.000000e-01
-7.757844e-01 6.666667e-01 1.000000e-01
-1.000000e+00 1.000000e+00 1.000000e-01
-9.779858e-01 6.666667e-01 1.000000e-01
-1.200000e+00 1.000000e+00 1.000000e-01
-1.180187e+00 6.666667e-01 1.000000e-01
-2.000000e-01 1.000000e+00 -1.000000e-01
-1.691801e-01 6.666667e-01 -1.000000e-01
-4.000000e-01 1.000000e+00 -1.000000e-01
-3.713816e-01 6.666667e-01 -1.000000e-01
-6.000000e-01 1.000000e+00 -1.000000e-01
-5.735829e-01 6.666667e-01 -1.000000e-01
-8.000000e-01 1.000000e+00 -1.000000e-01
-7.757844e-01 6.666667e-01 -1.000000e-01
-1.000000e+00 1.000000e+00 -1.000000e-01
-9.779858e-01 6.666667e-01 -1.000000e-01
-1.200000e+00 1.000000e+00 -1.000000e-01
-1.180187e+00 6.666667e-01 -1.000000e-01
-1.400000e+00 1.000000e+00 -1.000000e-01
-1.382389e+00 6.666667e-01 -1.000000e-01
-2.000000e-01 1.000000e+00 -3.000000e-01
-1.691801e-01 6.666667e-01 -3.000000e-01
-4.000000e-01 1.000000e+00 -3.000000e-01
-3.713816e-01 6.666667e-01 -3.000000e-01
-6.000000e-01 1.000000e+00 -3.000000e-01
-5.735829e-01 6.666667e-01 -3.000000e-01
-8.000000e-01 1.000000e+00 -3.000000e-01
-7.757844e-01 6.666667e-01 -3.000000e-01
-1.000000e+00 1.000000e+00 -3.000000e-01
-9.779858e-01 6.666667e-01 -3.000000e-01
-1.200000e+00 1.000000e+00 -3.000000e-01
-1.180187e+00 6.666667e-01 -3.000000e-01
-1.400000e+00 1.000000e+00 -3.000000e-01
-1.382389e+00 6.666667e-01 -3.000000e-01
-2.000000e-01 1.000000e+00 -5.000000e-01
-1.691801e-01 6.666667e-01 -5.000000e-01
-4.000000e-01 1.000000e+00 -5.000000e-01
-3.713816e-01 6.666667e-01 -5.000000e-01
-6.000000e-01 1.000000e+00 -5.000000e-01
-5.735829e-01 6.666667e-01 -5.000000e-01
-8.000000e-01 1.000000e+00 -5.000000e-01
-7.757844e-01 6.666667e-01 -5.000000e-01
-1.000000e+00 1.000000e+00 -5.000000e-01
-9.779858e-01 6.666667e-01 -5.000000e-01
-1.200000e+00 1.000000e+00 -5.000000e-01
-1.180187e+00 6.666667e-01 -5.000000e-01
-1.400000e+00 1.000000e+00 -5.000000e-01
-1.382389e+00 6.666667e-01 -5.000000e-01
6.604260e-02 3.333333e-01 5.000000e-01
6.604260e-02 3.333333e-01 3.000000e-01
-1.383602e-01 3.333333e-01 5.000000e-01
-1.383602e-01 3.333333e-01 3.000000e-01
-3.427631e-01 3.333333e-01 5.000000e-01
-3.427631e-01 3.333333e-01 3.000000e-01
-5.471659e-01 3.333333e-01 5.000000e-01
-5.471659e-01 3.333333e-01 3.000000e-01
-7.515687e-01 3.333333e-01 5.000000e-01
-7.515687e-01 3.333333e-01 3.000000e-01
-9.559716e-01 3.333333e-01 5.000000e-01
-9.559716e-01 3.333333e-01 3.000000e-01
-1.160374e+00 3.333333e-01 5.000000e-01
-1.160374e+00 3.333333e-01 3.000000e-01
-1.383602e-01 3.333333e-01 1.000000e-01
-3.427631e-01 3.333333e-01 1.000000e-01
-5.471659e-01 3.333333e-01 1.000000e-01
-7.515687e-01 3.333333e-01 1.000000e-01
-9.559716e-01 3.333333e-01 1.000000e-01
-1.160374e+00 3.333333e-01 1.000000e-01
-1.383602e-01 3.333333e-01 -1.000000e-01
-3.427631e-01 3.333333e-01 -1.000000e-01
-5.471659e-01 3.333333e-01 -1.000000e-01
-7.515687e-01 3.333333e-01 -1.000000e-01
-9.559716e-01 3.333333e-01 -1.000000e-01
-1.160374e+00 3.333333e-01 -1.000000e-01
-1.364777e+00 3.333333e-01 -1.000000e-01
-1.383602e-01 3.333333e-01 -3.000000e-01
-3.427631e-01 3.333333e-01 -3.000000e-01
-5.471659e-01 3.333333e-01 -3.000000e-01
-7.515687e-01 3.333333e-01 -3.000000e-01
-9.559716e-01 3.333333e-01 -3.000000e-01
-1.160374e+00 3.333333e-01 -3.000000e-01
-1.364777e+00 3.333333e-01 -3.000000e-01
-1.383602e-01 3.333333e-01 -5.000000e-01
-3.427631e-01 3.333333e-01 -5.000000e-01
-5.471659e-01 3.333333e-01 -5.000000e-01
-7.515687e-01 3.333333e-01 -5.000000e-01
-9.559716e-01 3.333333e-01 -5.000000e-01
-1.160374e+00 3.333333e-01 -5.000000e-01
-1.364777e+00 3.333333e-01 -5.000000e-01
9.906390e-02 -2.775558e-17 5.000000e-01
9.906390e-02 -5.551115e-17 3.000000e-01
-1.075404e-01 0.000000e+00 5.000000e-01
-1.075404e-01 0.000000e+00 3.000000e-01
-3.141446e-01 0.000000e+00 5.000000e-01
-3.141446e-01 0.000000e+00 3.000000e-01
-5.207489e-01 0.000000e+00 5.000000e-01
-5.207489e-01 0.000000e+00 3.000000e-01
-7.273532e-01 -5.551115e-17 5.000000e-01
-7.273532e-01 0.000000e+00 3.000000e-01
-9.339574e-01 0.000000e+00 5.000000e-01
-9.339574e-01 0.000000e+00 3.000000e-01
-1.140562e+00 0.000000e+00 5.000000e-01
-1.140562e+00 0.000000e+00 3.000000e-01
-1.075404e-01 -2.775558e-17 1.000000e-01
-3.141446e-01 0.000000e+00 1.000000e-01
-5.207489e-01 -2.775558e-17 1.000000e-01
-7.273532e-01 0.000000e+00 1.000000e-01
-9.339574e-01 0.000000e+00 1.000000e-01
-1.140562e+00 -2.775558e-17 1.000000e-01
-1.075404e-01 0.000000e+00 -1.000000e-01
-3.141446e-01 0.000000e+00 -1.000000e-01
-5.207489e-01 -2.775558e-17 -1.000000e-01
-7.273532e-01 0.000000e+00 -1.000000e-01
-9.339574e-01 0.000000e+00 -1.000000e-01
-1.140562e+00 -2.775558e-17 -1.000000e-01
-1.347166e+00 0.000000e+00 -1.000000e-01
-1.075404e-01 -2.775558e-17 -3.000000e-01
-3.141446e-01 0.000000e+00 -3.000000e-01
-5.207489e-01 0.000000e+00 -3.000000e-01
-7.273532e-01 -2.775558e-17 -3.000000e-01
-9.339574e-01 -2.775558e-17 -3.000000e-01
-1.140562e+00 -2.775558e-17 -3.000000e-01
-1.347166e+00 -5.551115e-17 -3.000000e-01
-1.075404e-01 0.000000e+00 -5.000000e-01
-3.141446e-01 0.000000e+00 -5.000000e-01
-5.207489e-01 0.000000e+00 -5.000000e-01
-7.273532e-01 0.000000e+00 -5.000000e-01
-9.339574e-01 0.000000e+00 -5.000000e-01
-1.140562e+00 0.000000e+00 -5.000000e-01
-1.347166e+00 -5.551115e-17 -5.000000e-01
1.320852e-01 -3.333333e-01 5.000000e-01
1.320852e-01 -3.333333e-01 3.000000e-01
-7.672048e-02 -3.333333e-01 5.000000e-01
-7.672048e-02 -3.333333e-01 3.000000e-01
-2.855262e-01 -3.333333e-01 5.000000e-01
-2.855262e-01 -3.333333e-01 3.000000e-01
-4.943318e-01 -3.333333e-01 5.000000e-01
-4.943318e-01 -3.333333e-01 3.000000e-01
-7.031375e-01 -3.333333e-01 5.000000e-01
-7.031375e-01 -3.333333e-01 3.000000e-01
-9.119432e-01 -3.333333e-01 5.000000e-01
-9.119432e-01 -3.333333e-01 3.000000e-01
-7.672048e-02 -3.333333e-01 1.000000e-01
-2.855262e-01 -3.333333e-01 1.000000e-01
-4.943318e-01 -3.333333e-01 1.000000e-01
-7.031375e-01 -3.333333e-01 1.000000e-01
-9.119432e-01 -3.333333e-01 1.000000e-01
-7.672048e-02 -3.333333e-01 -1.000000e-01
-2.855262e-01 -3.333333e-01 -1.000000e-01
-4.943318e-01 -3.333333e-01 -1.000000e-01
-7.031375e-01 -3.333333e-01 -1.000000e-01
-9.119432e-01 -3.333333e-01 -1.000000e-01
-1.120749e+00 -3.333333e-01 -1.000000e-01
-1.329555e+00 -3.333333e-01 -1.000000e-01
-7.672048e-02 -3.333333e-01 -3.000000e-01
-2.855262e-01 -3.333333e-01 -3.000000e-01
-4.943318e-01 -3.333333e-01 -3.000000e-01
-7.031375e-01 -3.333333e-01 -3.000000e-01
-9.119432e-01 -3.333333e-01 -3.000000e-01
-1.120749e+00 -3.333333e-01 -3.000000e-01
-1.329555e+00 -3.333333e-01 -3.000000e-01
-7.672048e-02 -3.333333e-01 -5.000000e-01
-2.855262e-01 -3.333333e-01 -5.000000e-01
-4.943318e-01 -3.333333e-01 -5.000000e-01
-7.031375e-01 -3.333333e-01 -5.000000e-01
-9.119432e-01 -3.333333e-01 -5.000000e-01
-1.120749e+00 -3.333333e-01 -5.000000e-01
-1.329555e+00 -3.333333e-01 -5.000000e-01
1.651065e-01 -6.666667e-01 5.000000e-01
1.651065e-01 -6.666667e-01 3.000000e-01
-4.590059e-02 -6.666667e-01 5.000000e-01
-4.590059e-02 -6.666667e-01 3.000000e-01
-2.569077e-01 -6.666667e-01 5.000000e-01
-2.569077e-01 -6.666667e-01 3.000000e-01
-4.679148e-01 -6.666667e-01 5.000000e-01
-4.679148e-01 -6.666667e-01 3.000000e-01
-6.789219e-01 -6.666667e-01 5.000000e-01
-6.789219e-01 -6.666667e-01 3.000000e-01
-8.899290e-01 -6.666667e-01 5.000000e-01
-8.899290e-01 -6.666667e-01 3.000000e-01
-4.590059e-02 -6.666667e-01 1.000000e-01
-2.569077e-01 -6.666667e-01 1.000000e-01
-4.679148e-01 -6.666667e-01 1.000000e-01
-6.789219e-01 -6.666667e-01 1.000000e-01
-8.899290e-01 -6.666667e-01 1.000000e-01
-4.590059e-02 -6.666667e-01 -1.000000e-01
-2.569077e-01 -6.666667e-01 -1.000000e-01
-4.679148e-01 -6.666667e-01 -1.000000e-01
-6.789219e-01 -6.666667e-01 -1.000000e-01
-8.899290e-01 -6.666667e-01 -1.000000e-01
-1.100936e+00 -6.666667e-01 -1.000000e-01
-1.311943e+00 -6.666667e-01 -1.000000e-01
-4.590059e-02 -6.666667e-01 -3.000000e-01
-2.569077e-01 -6.666667e-01 -3.000000e-01
-4.679148e-01 -6.666667e-01 -3.000000e-01
-6.789219e-01 -6.666667e-01 -3.000000e-01
-8.899290e-01 -6.666667e-01 -3.000000e-01
-1.100936e+00 -6.666667e-01 -3.000000e-01
-1.311943e+00 -6.666667e-01 -3.000000e-01
-4.590059e-02 -6.666667e-01 -5.000000e-01
-2.569077e-01 -6.666667e-01 -5.000000e-01
-4.679148e-01 -6.666667e-01 -5.000000e-01
-6.789219e-01 -6.666667e-01 -5.000000e-01
-8.899290e-01 -6.666667e-01 -5.000000e-01
-1.100936e+00 -6.666667e-01 -5.000000e-01
-1.311943e+00 -6.666667e-01 -5.000000e-01
1.981278e-01 -1.000000e+00 5.000000e-01
1.981278e-01 -1.000000e+00 3.000000e-01
[...]
CELL_DATA 900
SCALARS Density double 1
LOOKUP_TABLE default
1.000000e+00
1.000000e+00
1.000000e+00
1.000000e+00
1.000000e+00
1.000000e+00
1.000000e+00
1.000000e+00
1.000000e+00
1.000000e+00
1.000000e+00
1.000000e+00
1.000000e+00
1.000000e+00
1.000000e+00
1.000000e+00
1.000000e+00
1.000000e+00
1.000000e+00
1.000000e+00
1.000000e+00
1.000000e+00
1.000000e+00
1.000000e+00
1.000000e+00
1.000000e+00
1.000000e+00
1.000000e+00
1.000000e+00
1.000000e+00
1.000000e+00
1.000000e+00
1.000000e+00
1.000000e+00
1.000000e+00
1.000000e+00
1.000000e+00
1.000000e+00
1.000000e+00
1.000000e+00
1.000000e+00
1.000000e+00
1.000000e+00
1.000000e+00
1.000000e+00
1.000000e+00
1.000000e+00
1.000000e+00
1.000000e+00
1.000000e+00
1.000000e+00
1.000000e+00
1.000000e+00
1.000000e+00
1.000000e+00
1.000000e+00
1.000000e+00
1.000000e+00
1.000000e+00
1.000000e+00
1.000000e+00
1.000000e+00
1.000000e+00
1.000000e+00
1.000000e+00
1.000000e+00
1.000000e+00
1.000000e+00
1.000000e+00
1.000000e+00
1.000000e+00
1.000000e+00
1.000000e+00
1.000000e+00
1.000000e+00
1.000000e+00
1.000000e+00
1.000000e+00
1.000000e+00
1.000000e+00
1.000000e+00
1.000000e+00
1.000000e+00
1.000000e+00
1.000000e+00
1.000000e+00
1.000000e+00
1.000000e+00
1.000000e+00
1.000000e+00
1.000000e+00
1.000000e+00
1.000000e+00
1.000000e+00
1.000000e+00
1.000000e+00
1.000000e+00
1.000000e+00
1.000000e+00
1.000000e+00
1.000000e+00
1.000000e+00
1.000000e+00
1.000000e+00
1.000000e+00
1.000000e+00
1.000000e+00
1.000000e+00
1.000000e+00
1.000000e+00
1.000000e+00
1.000000e+00
1.000000e+00
1.000000e+00
1.000000e+00
1.000000e+00
1.000000e+00
1.000000e+00
1.000000e+00
1.000000e+00
1.000000e+00
1.000000e+00
1.000000e+00
1.000000e+00
1.000000e+00
1.000000e+00
1.000000e+00
1.000000e+00
1.000000e+00
1.000000e+00
1.000000e+00
1.000000e+00
1.000000e+00
1.000000e+00
1.000000e+00
1.000000e+00
1.000000e+00
1.000000e+00
1.000000e+00
1.000000e+00
1.000000e+00
1.000000e+00
1.000000e+00
1.000000e+00
1.000000e+00
1.000000e+00
1.000000e+00
1.000000e+00
1.000000e+00
1.000000e+00
1.000000e+00
1.000000e+00
1.000000e+00
1.000000e+00
1.000000e+00
1.000000e+00
1.000000e+00
1.000000e+00
1.000000e+00
1.000000e+00
1.000000e+00
1.000000e+00
1.000000e+00
1.000000e+00
1.000000e+00
1.000000e+00
1.000000e+00
1.000000e+00
1.000000e+00
1.000000e+00
1.000000e+00
1.000000e+00
1.000000e+00
1.000000e+00
1.000000e+00
1.000000e+00
1.000000e+00
1.000000e+00
1.000000e+00
1.000000e+00
1.000000e+00
1.000000e+00
1.000000e+00
1.000000e+00
1.000000e+00
1.000000e+00
1.000000e+00
1.000000e+00
1.000000e+00
1.000000e+00
1.000000e+00
1.000000e+00
1.000000e+00
1.000000e+00
1.000000e+00
1.000000e+00
1.000000e+00
1.000000e+00
1.000000e+00
1.000000e+00
1.000000e+00
1.000000e+00
1.000000e+00
1.000000e+00
1.000000e+00
1.000000e+00
1.000000e+00
1.000000e+00
1.000000e+00
1.000000e+00
1.000000e+00
1.000000e+00
1.000000e+00
1.000000e+00
1.000000e+00
1.000000e+00
1.000000e+00
1.000000e+00
1.000000e+00
1.000000e+00
1.000000e+00
1.000000e+00
1.000000e+00
1.000000e+00
1.000000e+00
1.000000e+00
1.000000e+00
1.000000e+00
1.000000e+00
1.000000e+00
1.000000e+00
1.000000e+00
1.000000e+00
1.000000e+00
1.000000e+00
1.000000e+00
1.000000e+00
1.000001e+00
1.000012e+00
1.000120e+00
1.000889e+00
1.006107e+00
1.027713e+00
1.094342e+00
1.000000e+00
1.000001e+00
1.000013e+00
1.000128e+00
1.000951e+00
1.006499e+00
1.029285e+00
1.097817e+00
1.000001e+00
1.000013e+00
1.000129e+00
1.000953e+00
1.006517e+00
1.029357e+00
1.097970e+00
1.000001e+00
1.000013e+00
1.000128e+00
1.000951e+00
1.006499e+00
1.029285e+00
1.097817e+00
1.000001e+00
1.000012e+00
1.000120e+00
1.000889e+00
1.006107e+00
1.027713e+00
1.094342e+00
1.000000e+00
1.000001e+00
1.000012e+00
1.000118e+00
1.000888e+00
1.006156e+00
1.028084e+00
1.095810e+00
1.000000e+00
1.000001e+00
1.000013e+00
1.000127e+00
1.000949e+00
1.006552e+00
1.029684e+00
1.099373e+00
1.000001e+00
1.000013e+00
1.000127e+00
1.000952e+00
1.006570e+00
1.029757e+00
1.099530e+00
1.000001e+00
1.000013e+00
1.000127e+00
1.000949e+00
1.006552e+00
1.029684e+00
1.099373e+00
1.000001e+00
1.000012e+00
1.000118e+00
1.000888e+00
1.006156e+00
1.028084e+00
1.095810e+00
1.000000e+00
1.000001e+00
1.000011e+00
1.000113e+00
1.000852e+00
1.005975e+00
1.027514e+00
1.095123e+00
1.000000e+00
1.000001e+00
1.000012e+00
1.000121e+00
1.000910e+00
1.006359e+00
1.029082e+00
1.098666e+00
1.000001e+00
1.000012e+00
1.000121e+00
1.000913e+00
1.006377e+00
1.029153e+00
1.098823e+00
1.000001e+00
1.000012e+00
1.000121e+00
1.000910e+00
1.006359e+00
1.029082e+00
1.098666e+00
1.000001e+00
1.000011e+00
1.000113e+00
1.000852e+00
1.005975e+00
1.027514e+00
1.095123e+00
1.000000e+00
1.000001e+00
1.000010e+00
1.000107e+00
1.000816e+00
1.005794e+00
1.026927e+00
1.094366e+00
1.000000e+00
1.000001e+00
1.000011e+00
1.000114e+00
1.000873e+00
1.006166e+00
1.028462e+00
1.097886e+00
1.000001e+00
1.000011e+00
1.000115e+00
1.000875e+00
1.006183e+00
1.028533e+00
1.098042e+00
1.000001e+00
1.000011e+00
1.000114e+00
1.000873e+00
1.006166e+00
1.028462e+00
1.097886e+00
1.000001e+00
1.000010e+00
1.000107e+00
1.000816e+00
1.005794e+00
1.026927e+00
1.094366e+00
1.000000e+00
1.000000e+00
1.000001e+00
1.000010e+00
1.000101e+00
1.000782e+00
1.005612e+00
1.026326e+00
1.093539e+00
1.000000e+00
1.000000e+00
1.000001e+00
1.000010e+00
1.000109e+00
1.000836e+00
1.005972e+00
1.027826e+00
1.097031e+00
1.000001e+00
1.000010e+00
1.000109e+00
1.000838e+00
1.005989e+00
1.027895e+00
1.097186e+00
1.000001e+00
1.000010e+00
1.000109e+00
1.000836e+00
1.005972e+00
1.027826e+00
1.097031e+00
1.000001e+00
1.000010e+00
1.000101e+00
1.000782e+00
1.005612e+00
1.026326e+00
1.093539e+00
1.000000e+00
1.000000e+00
1.000001e+00
1.000009e+00
1.000092e+00
1.000718e+00
1.005232e+00
1.024876e+00
1.090668e+00
1.000000e+00
1.000000e+00
1.000001e+00
1.000009e+00
1.000099e+00
1.000768e+00
1.005568e+00
1.026288e+00
1.094030e+00
1.000001e+00
1.000009e+00
1.000099e+00
1.000770e+00
1.005583e+00
1.026353e+00
1.094180e+00
1.000001e+00
1.000009e+00
1.000099e+00
1.000768e+00
1.005568e+00
1.026288e+00
1.094030e+00
1.000001e+00
1.000009e+00
1.000092e+00
1.000718e+00
1.005232e+00
1.024876e+00
1.090668e+00
1.000000e+00
1.000000e+00
1.000000e+00
1.000000e+00
1.000000e+00
1.000000e+00
1.000000e+00
1.000000e+00
1.000000e+00
1.000000e+00
1.000000e+00
1.000000e+00
1.000000e+00
1.000000e+00
1.000000e+00
1.000000e+00
1.000000e+00
1.000000e+00
1.000000e+00
1.000000e+00
1.000000e+00
1.000000e+00
1.000000e+00
1.000000e+00
1.000000e+00
1.000000e+00
1.000000e+00
1.000000e+00
1.000000e+00
1.000000e+00
1.000000e+00
1.000000e+00
1.000000e+00
1.000000e+00
1.000000e+00
1.000000e+00
1.000000e+00
1.000000e+00
1.000000e+00
1.000000e+00
1.000000e+00
1.000000e+00
1.000000e+00
1.000000e+00
1.000000e+00
1.000000e+00
1.000000e+00
1.000000e+00
1.000000e+00
1.000000e+00
1.000000e+00
1.000000e+00
1.000000e+00
1.000000e+00
1.000000e+00
1.000000e+00
1.000000e+00
1.000000e+00
1.000000e+00
1.000000e+00
1.000000e+00
1.000000e+00
1.000000e+00
1.000000e+00
1.000000e+00
1.000000e+00
1.000000e+00
1.000000e+00
1.000000e+00
1.000000e+00
1.000000e+00
1.000000e+00
1.000000e+00
1.000000e+00
1.000000e+00
1.000000e+00
1.000000e+00
1.000000e+00
1.000000e+00
1.000000e+00
1.000000e+00
1.000000e+00
1.000000e+00
1.000000e+00
1.000000e+00
1.000000e+00
1.000000e+00
1.000000e+00
1.000000e+00
1.000000e+00
1.000000e+00
1.000000e+00
1.000000e+00
1.000000e+00
1.000000e+00
1.000000e+00
1.000000e+00
1.000000e+00
1.000000e+00
1.000000e+00
1.000000e+00
1.000000e+00
1.000000e+00
1.000000e+00
1.000000e+00
1.000000e+00
1.000000e+00
1.000000e+00
1.000000e+00
1.000000e+00
1.000000e+00
1.000000e+00
1.000000e+00
1.000000e+00
1.000000e+00
1.000000e+00
1.000000e+00
1.000000e+00
1.000000e+00
1.000000e+00
1.000000e+00
1.000000e+00
1.000000e+00
1.000000e+00
1.000000e+00
1.000000e+00
1.000000e+00
1.000000e+00
1.000000e+00
1.000000e+00
1.000000e+00
1.000000e+00
1.000000e+00
1.000000e+00
1.000000e+00
1.000000e+00
1.000000e+00
1.000000e+00
1.000000e+00
1.000000e+00
1.000000e+00
1.000000e+00
1.000000e+00
1.000000e+00
1.000000e+00
1.000000e+00
1.000000e+00
1.000000e+00
1.000000e+00
1.000000e+00
1.000000e+00
1.000000e+00
1.000000e+00
1.000000e+00
1.000000e+00
1.000000e+00
1.000000e+00
1.000000e+00
1.000000e+00
1.000000e+00
1.000000e+00
1.000000e+00
1.000000e+00
1.000000e+00
1.000000e+00
1.000000e+00
1.000000e+00
1.000000e+00
1.000000e+00
1.000000e+00
1.000000e+00
1.000000e+00
1.000000e+00
1.000000e+00
1.000000e+00
1.000000e+00
1.000000e+00
1.000000e+00
1.000000e+00
1.000000e+00
1.000000e+00
1.000000e+00
1.000000e+00
1.000000e+00
1.000000e+00
1.000000e+00
1.000000e+00
1.000000e+00
1.000000e+00
1.000000e+00
1.000000e+00
1.000000e+00
1.000000e+00
1.000000e+00
1.000000e+00
1.000000e+00
1.000000e+00
1.000000e+00
1.000000e+00
1.000000e+00
1.000000e+00
1.000000e+00
1.000000e+00
1.000000e+00
1.000000e+00
1.000000e+00
1.000000e+00
1.000000e+00
1.000000e+00
1.000000e+00
1.000000e+00
1.000000e+00
1.000000e+00
1.000000e+00
1.000000e+00
1.000000e+00
1.000000e+00
1.000000e+00
1.000000e+00
1.000000e+00
1.000000e+00
1.000000e+00
1.000000e+00
1.000000e+00
1.000000e+00
1.000000e+00
1.000000e+00
1.000000e+00
1.000000e+00
1.000000e+00
1.000000e+00
1.000000e+00
1.000000e+00
1.000000e+00
1.000000e+00
1.000000e+00
1.000000e+00
1.000000e+00
1.000000e+00
1.000000e+00
1.000000e+00
1.000000e+00
1.000000e+00
1.000000e+00
1.000000e+00
1.000000e+00
1.000000e+00
1.000000e+00
1.000000e+00
1.000000e+00
1.000000e+00
1.000000e+00
1.000000e+00
1.000000e+00
1.000000e+00
1.000000e+00
1.000000e+00
1.000000e+00
1.000000e+00
1.000000e+00
1.000000e+00
1.000000e+00
1.000000e+00
1.000000e+00
1.000000e+00
1.000000e+00
1.000000e+00
1.000000e+00
1.000000e+00
1.000000e+00
1.000000e+00
1.000000e+00
1.000000e+00
1.000000e+00
1.000000e+00
1.000000e+00
1.000000e+00
1.000000e+00
1.000000e+00
1.000000e+00
1.000000e+00
1.000000e+00
1.000000e+00
1.000000e+00
1.000000e+00
1.000000e+00
1.000000e+00
1.000000e+00
1.000000e+00
1.000000e+00
1.000000e+00
1.000000e+00
1.000000e+00
1.000000e+00
1.000000e+00
1.000000e+00
1.000000e+00
1.000000e+00
1.000000e+00
1.000000e+00
1.000000e+00
1.000000e+00
1.000000e+00
1.000000e+00
1.000000e+00
1.000000e+00
1.000000e+00
1.000000e+00
1.000000e+00
1.000000e+00
1.000000e+00
1.000000e+00
1.000000e+00
1.000000e+00
1.000000e+00
1.000000e+00
1.000000e+00
1.000000e+00
1.000000e+00
1.000000e+00
1.000000e+00
1.000000e+00
1.000000e+00
1.000000e+00
1.000000e+00
1.000000e+00
1.000000e+00
1.000000e+00
1.000000e+00
1.000000e+00
1.000000e+00
1.000000e+00
1.000000e+00
1.000000e+00
1.000000e+00
1.000000e+00
1.000000e+00
1.000000e+00
1.000000e+00
1.000000e+00
1.000000e+00
1.000000e+00
1.000000e+00
1.000000e+00
1.000000e+00
1.000000e+00
1.000000e+00
1.000000e+00
1.000000e+00
1.000000e+00
1.000000e+00
1.000000e+00
1.000000e+00
1.000000e+00
1.000000e+00
1.000000e+00
1.000000e+00
1.000000e+00
1.000000e+00
1.000000e+00
1.000000e+00
1.000000e+00
1.000000e+00
1.000000e+00
1.000000e+00
1.000000e+00
1.000000e+00
1.000000e+00
1.000000e+00
1.000000e+00
1.000000e+00
1.000000e+00
1.000000e+00
1.000000e+00
1.000000e+00
1.000000e+00
1.000000e+00
1.000000e+00
1.000000e+00
1.000000e+00
1.000000e+00
1.000000e+00
1.000000e+00
1.000000e+00
1.000000e+00
1.000000e+00
1.000000e+00
1.000000e+00
1.000000e+00
1.000000e+00
1.000000e+00
1.000000e+00
1.000000e+00
1.000000e+00
1.000000e+00
1.000000e+00
1.000000e+00
1.000000e+00
1.000000e+00
1.000000e+00
1.000000e+00
1.000000e+00
1.000000e+00
1.000000e+00
1.000000e+00
1.000000e+00
1.000000e+00
1.000000e+00
1.000000e+00
1.000000e+00
1.000000e+00
1.000000e+00
1.000000e+00
1.000000e+00
1.000000e+00
1.000000e+00
1.000000e+00
1.000000e+00
1.000000e+00
1.000000e+00
1.000000e+00
1.000000e+00
1.000000e+00
1.000000e+00
1.000000e+00
1.000000e+00
1.000000e+00
1.000000e+00
1.000000e+00
1.000000e+00
1.000000e+00
1.000000e+00
1.000000e+00
1.000000e+00
1.000000e+00
1.000000e+00
1.000000e+00
1.000000e+00
VECTORS Momentum double
-9.841017e-17 1.948358e-16 -2.860640e-17
5.584422e-17 2.328693e-18 2.125732e-17
1.147312e-14 1.003821e-15 1.470954e-17
2.777460e-13 2.144561e-14 2.201738e-15
5.720243e-12 4.049290e-13 4.786551e-14
1.062434e-10 6.835998e-12 9.681881e-13
1.852852e-09 1.078163e-10 1.777606e-11
2.841272e-08 1.473166e-09 3.053037e-10
1.030287e-17 -4.327094e-18 2.198488e-17
5.544251e-17 1.027908e-17 -2.117545e-17
1.253378e-14 1.094717e-15 6.711090e-18
3.000409e-13 2.310253e-14 9.704568e-16
6.173376e-12 4.366028e-13 2.163897e-14
1.146269e-10 7.376035e-12 4.345953e-13
1.998033e-09 1.162623e-10 7.957246e-12
3.061990e-08 1.587570e-09 1.364091e-10
6.827669e-17 -8.500345e-18 1.060034e-17
1.253811e-14 1.093940e-15 -6.196398e-31
3.011445e-13 2.319946e-14 2.049037e-29
6.193819e-12 4.378930e-13 4.864441e-27
1.149931e-10 7.398954e-12 -3.212106e-27
2.004385e-09 1.166321e-10 -1.335979e-25
3.071660e-08 1.592585e-09 -8.241656e-24
4.429030e-07 2.032355e-08 -5.949670e-22
5.544251e-17 2.155617e-17 -1.062556e-17
1.253361e-14 1.094889e-15 -6.711070e-18
3.000408e-13 2.310235e-14 -9.704556e-16
6.173373e-12 4.366053e-13 -2.163900e-14
1.146269e-10 7.376035e-12 -4.345953e-13
1.998033e-09 1.162623e-10 -7.957246e-12
3.061990e-08 1.587570e-09 -1.364091e-10
4.415229e-07 2.026017e-08 -2.045771e-09
6.277201e-17 2.800538e-18 -5.670937e-20
1.146637e-14 1.005117e-15 -1.471842e-17
2.777459e-13 2.144838e-14 -2.202369e-15
5.720244e-12 4.049280e-13 -4.786611e-14
1.062434e-10 6.835998e-12 -9.681892e-13
1.852852e-09 1.078163e-10 -1.777606e-11
2.841272e-08 1.473166e-09 -3.053037e-10
4.100218e-07 1.881507e-08 -4.590249e-09
-2.880785e-15 1.884544e-14 -5.582717e-16
-2.530198e-16 2.291500e-16 -1.065832e-17
1.029873e-14 8.877575e-16 9.951904e-18
2.527893e-13 1.897669e-14 1.875416e-15
5.263473e-12 3.614163e-13 4.341776e-14
9.883070e-11 6.135685e-12 9.017969e-13
1.742712e-09 9.730107e-11 1.671738e-11
2.700551e-08 1.329155e-09 2.903021e-10
4.487521e-17 1.107558e-16 -3.167750e-16
8.288925e-17 1.450229e-17 -6.082579e-18
1.110757e-14 9.592665e-16 4.386940e-18
2.727795e-13 2.044920e-14 8.306327e-16
5.681178e-12 3.902546e-13 1.947520e-14
1.066317e-10 6.619806e-12 4.043825e-13
1.879299e-09 1.049223e-10 7.483782e-12
2.910411e-08 1.432346e-09 1.297120e-10
2.928768e-17 8.254508e-18 9.491842e-33
1.114414e-14 9.746720e-16 1.655705e-30
2.736351e-13 2.051968e-14 7.662052e-29
5.699514e-12 3.913826e-13 -1.542913e-26
1.069727e-10 6.640881e-12 -3.004010e-24
1.885276e-09 1.052557e-10 -3.656517e-22
2.919608e-08 1.436871e-09 -2.151423e-20
4.256106e-07 1.836756e-08 4.384344e-20
1.088019e-16 -1.922074e-17 -8.141010e-18
1.110582e-14 9.542955e-16 -4.387600e-18
2.727839e-13 2.044704e-14 -8.307217e-16
5.681179e-12 3.902542e-13 -1.947529e-14
1.066317e-10 6.619805e-12 -4.043829e-13
1.879299e-09 1.049223e-10 -7.483783e-12
2.910411e-08 1.432346e-09 -1.297120e-10
4.242833e-07 1.831030e-08 -1.965930e-09
3.876899e-16 -2.662898e-16 -1.540613e-17
1.030486e-14 8.855287e-16 -9.951996e-18
2.527895e-13 1.897651e-14 -1.875759e-15
5.263473e-12 3.614162e-13 -4.341732e-14
9.883070e-11 6.135685e-12 -9.017965e-13
1.742712e-09 9.730107e-11 -1.671738e-11
2.700551e-08 1.329155e-09 -2.903021e-10
3.939994e-07 1.700488e-08 -4.410813e-09
-1.076887e-13 -3.065914e-14 -6.185816e-14
-3.096508e-14 -3.262717e-15 -8.117257e-16
8.256989e-15 7.007919e-16 4.183669e-19
2.200226e-13 1.621991e-14 1.678526e-15
4.638723e-12 3.125482e-13 3.938962e-14
8.802268e-11 5.343707e-12 8.022455e-13
1.569023e-09 8.534523e-11 1.505002e-11
2.457390e-08 1.169679e-09 2.641747e-10
1.723335e-14 1.581654e-15 -3.279071e-14
-1.099343e-16 -1.709743e-17 -4.469944e-16
9.452883e-15 8.232753e-16 -1.443710e-18
2.379924e-13 1.756047e-14 7.317213e-16
5.006268e-12 3.374731e-13 1.764532e-14
9.497027e-11 5.765439e-12 3.600720e-13
1.691995e-09 9.202677e-11 6.736850e-12
2.648348e-08 1.260437e-09 1.180377e-10
9.205969e-17 1.235678e-17 -3.459494e-17
9.424762e-15 8.224073e-16 -5.017888e-23
2.387133e-13 1.768632e-14 -4.693627e-21
5.022811e-12 3.386268e-13 -2.896652e-19
9.527349e-11 5.783843e-12 -2.901510e-19
1.697376e-09 9.231951e-11 -2.778136e-19
2.656716e-08 1.264416e-09 -6.982112e-19
3.915142e-07 1.623947e-08 5.612016e-19
3.582203e-15 3.576964e-16 -5.249779e-16
9.486323e-15 8.273609e-16 -9.726085e-18
2.379848e-13 1.756590e-14 -7.322058e-16
5.006272e-12 3.374721e-13 -1.765366e-14
9.497027e-11 5.765438e-12 -3.600804e-13
1.691995e-09 9.202677e-11 -6.736859e-12
2.648348e-08 1.260437e-09 -1.180378e-10
3.902933e-07 1.618890e-08 -1.808068e-09
3.335867e-14 3.452847e-15 -9.429770e-16
9.153161e-15 8.047837e-16 -2.011358e-17
2.200324e-13 1.622100e-14 -1.677482e-15
4.638726e-12 3.125486e-13 -3.937022e-14
8.802267e-11 5.343709e-12 -8.022399e-13
1.569023e-09 8.534523e-11 -1.505002e-11
2.457390e-08 1.169679e-09 -2.641747e-10
3.624364e-07 1.503565e-08 -4.056653e-09
1.012977e-13 -8.956324e-15 6.285837e-14
3.130865e-14 2.762318e-15 8.935924e-16
7.780324e-15 6.755784e-16 1.699948e-17
1.915807e-13 1.417320e-14 1.389527e-15
4.087720e-12 2.755876e-13 3.412285e-14
7.840225e-11 4.758448e-12 7.162820e-13
1.412514e-09 7.681119e-11 1.354570e-11
2.235635e-08 1.063506e-09 2.403481e-10
-1.381316e-14 -1.541291e-15 3.340643e-14
3.788823e-16 2.811395e-17 4.895199e-16
8.000794e-15 6.987310e-16 1.050456e-17
2.069626e-13 1.529117e-14 7.416025e-16
4.412501e-12 2.972312e-13 1.540624e-14
8.458973e-11 5.134097e-12 3.212760e-13
1.523214e-09 8.282356e-11 6.064186e-12
2.409353e-08 1.146019e-09 1.073900e-10
2.580158e-17 6.208922e-18 1.708179e-17
8.050345e-15 6.932861e-16 3.499830e-23
2.076994e-13 1.536966e-14 3.195113e-21
4.426647e-12 2.982062e-13 1.585762e-19
8.486048e-11 5.150142e-12 2.481490e-19
1.528058e-09 8.308716e-11 3.810473e-19
2.416965e-08 1.149637e-09 -2.007196e-19
3.600174e-07 1.491986e-08 -2.573635e-19
-1.032851e-15 -7.794014e-17 4.159845e-16
7.978389e-15 6.974986e-16 6.363624e-19
2.069705e-13 1.528937e-14 -7.412319e-16
4.412493e-12 2.972307e-13 -1.539911e-14
8.458973e-11 5.134097e-12 -3.212678e-13
1.523214e-09 8.282356e-11 -6.064178e-12
2.409353e-08 1.146019e-09 -1.073900e-10
3.588948e-07 1.487341e-08 -1.662306e-09
-2.906511e-14 -2.508037e-15 7.736596e-16
6.954296e-15 5.996447e-16 5.919441e-19
1.915712e-13 1.416577e-14 -1.390666e-15
4.087699e-12 2.755861e-13 -3.414086e-14
7.840228e-11 4.758450e-12 -7.162865e-13
1.412514e-09 7.681119e-11 -1.354570e-11
2.235635e-08 1.063506e-09 -2.403481e-10
3.332803e-07 1.381398e-08 -3.729651e-09
2.300715e-15 1.967995e-14 5.888889e-16
3.771650e-16 3.116285e-16 1.300618e-17
6.207496e-15 5.476893e-16 5.955747e-18
1.670072e-13 1.217082e-14 1.215618e-15
3.601359e-12 2.388359e-13 2.990687e-14
6.980876e-11 4.151423e-12 6.372037e-13
1.271080e-09 6.745854e-11 1.218606e-11
-7.245315e-17 2.059848e-16 3.359146e-16
4.842793e-17 1.355582e-17 7.123259e-18
6.785169e-15 5.868169e-16 2.761028e-18
1.803553e-13 1.319286e-14 5.595116e-16
3.887250e-12 2.577325e-13 1.337699e-14
7.531714e-11 4.478268e-12 2.855195e-13
1.370689e-09 7.273718e-11 5.455148e-12
9.481305e-18 -2.928213e-18 4.247200e-33
6.774948e-15 5.799665e-16 5.490588e-31
1.808889e-13 1.315056e-14 4.374709e-29
3.899564e-12 2.584751e-13 6.457169e-27
7.555812e-11 4.492751e-12 5.483235e-25
1.375049e-09 7.296864e-11 3.001772e-23
2.197721e-08 1.012901e-09 1.126828e-21
3.308615e-07 1.319771e-08 2.086773e-20
2.857714e-17 -1.643130e-18 5.434024e-18
6.784214e-15 5.868446e-16 -2.761021e-18
1.803557e-13 1.319311e-14 -5.595105e-16
3.887250e-12 2.577328e-13 -1.337689e-14
7.531714e-11 4.478273e-12 -2.855193e-13
1.370689e-09 7.273718e-11 -5.455148e-12
2.190799e-08 1.009716e-09 -9.764797e-11
3.298299e-07 1.315667e-08 -1.527286e-09
-1.991296e-16 -2.510936e-16 1.055669e-17
6.196083e-15 5.416886e-16 -5.950717e-18
1.670069e-13 1.216958e-14 -1.214788e-15
3.601356e-12 2.388344e-13 -2.990716e-14
6.980876e-11 4.151424e-12 -6.372038e-13
1.271080e-09 6.745854e-11 -1.218606e-11
2.032850e-08 9.370560e-10 -2.185456e-10
3.062917e-07 1.222032e-08 -3.426759e-09
1.417089e-16 2.116723e-16 6.039112e-18
1.370015e-17 5.825895e-18 2.179801e-20
4.934875e-15 4.280975e-16 5.354529e-18
1.386939e-13 9.694969e-15 1.111928e-15
3.028859e-12 1.917657e-13 2.512645e-14
5.934114e-11 3.343625e-12 5.406634e-13
1.092561e-09 5.451177e-11 1.046276e-11
-9.281464e-18 -5.193068e-18 3.441845e-18
1.409983e-17 -7.607803e-18 9.884785e-21