# vtk DataFile Version 2.0
Simplicial Mesh Example
ASCII
DATASET UNSTRUCTURED_GRID
POINTS 1302 double
0.000000e+00 1.000000e+00 5.000000e-01
-5.551115e-17 1.000000e+00 3.000000e-01
3.302130e-02 6.666667e-01 5.000000e-01
3.302130e-02 6.666667e-01 3.000000e-01
-2.000000e-01 1.000000e+00 5.000000e-01
-2.000000e-01 1.000000e+00 3.000000e-01
-1.691801e-01 6.666667e-01 5.000000e-01
-1.691801e-01 6.666667e-01 3.000000e-01
-4.000000e-01 1.000000e+00 5.000000e-01
-4.000000e-01 1.000000e+00 3.000000e-01
-3.713816e-01 6.666667e-01 5.000000e-01
-3.713816e-01 6.666667e-01 3.000000e-01
-6.000000e-01 1.000000e+00 5.000000e-01
-6.000000e-01 1.000000e+00 3.000000e-01
-5.735829e-01 6.666667e-01 5.000000e-01
-5.735829e-01 6.666667e-01 3.000000e-01
-8.000000e-01 1.000000e+00 5.000000e-01
-8.000000e-01 1.000000e+00 3.000000e-01
-7.757844e-01 6.666667e-01 5.000000e-01
-7.757844e-01 6.666667e-01 3.000000e-01
-1.000000e+00 1.000000e+00 5.000000e-01
-1.000000e+00 1.000000e+00 3.000000e-01
-9.779858e-01 6.666667e-01 5.000000e-01
-9.779858e-01 6.666667e-01 3.000000e-01
-1.200000e+00 1.000000e+00 5.000000e-01
-1.200000e+00 1.000000e+00 3.000000e-01
-1.180187e+00 6.666667e-01 5.000000e-01
-1.180187e+00 6.666667e-01 3.000000e-01
-2.000000e-01 1.000000e+00 1.000000e-01
-1.691801e-01 6.666667e-01 1.000000e-01
-4.000000e-01 1.000000e+00 1.000000e-01
-3.713816e-01 6.666667e-01 1.000000e-01
-6.000000e-01 1.000000e+00 1.000000e-01
-5.735829e-01 6.666667e-01 1.000000e-01
-8.000000e-01 1.000000e+00 1.000000e-01
-7.757844e-01 6.666667e-01 1.000000e-01
-1.000000e+00 1.000000e+00 1.000000e-01
-9.779858e-01 6.666667e-01 1.000000e-01
-1.200000e+00 1.000000e+00 1.000000e-01
-1.180187e+00 6.666667e-01 1.000000e-01
-2.000000e-01 1.000000e+00 -1.000000e-01
-1.691801e-01 6.666667e-01 -1.000000e-01
-4.000000e-01 1.000000e+00 -1.000000e-01
-3.713816e-01 6.666667e-01 -1.000000e-01
-6.000000e-01 1.000000e+00 -1.000000e-01
-5.735829e-01 6.666667e-01 -1.000000e-01
-8.000000e-01 1.000000e+00 -1.000000e-01
-7.757844e-01 6.666667e-01 -1.000000e-01
-1.000000e+00 1.000000e+00 -1.000000e-01
-9.779858e-01 6.666667e-01 -1.000000e-01
-1.200000e+00 1.000000e+00 -1.000000e-01
-1.180187e+00 6.666667e-01 -1.000000e-01
-1.400000e+00 1.000000e+00 -1.000000e-01
-1.382389e+00 6.666667e-01 -1.000000e-01
-2.000000e-01 1.000000e+00 -3.000000e-01
-1.691801e-01 6.666667e-01 -3.000000e-01
-4.000000e-01 1.000000e+00 -3.000000e-01
-3.713816e-01 6.666667e-01 -3.000000e-01
-6.000000e-01 1.000000e+00 -3.000000e-01
-5.735829e-01 6.666667e-01 -3.000000e-01
-8.000000e-01 1.000000e+00 -3.000000e-01
-7.757844e-01 6.666667e-01 -3.000000e-01
-1.000000e+00 1.000000e+00 -3.000000e-01
-9.779858e-01 6.666667e-01 -3.000000e-01
-1.200000e+00 1.000000e+00 -3.000000e-01
-1.180187e+00 6.666667e-01 -3.000000e-01
-1.400000e+00 1.000000e+00 -3.000000e-01
-1.382389e+00 6.666667e-01 -3.000000e-01
-2.000000e-01 1.000000e+00 -5.000000e-01
-1.691801e-01 6.666667e-01 -5.000000e-01
-4.000000e-01 1.000000e+00 -5.000000e-01
-3.713816e-01 6.666667e-01 -5.000000e-01
-6.000000e-01 1.000000e+00 -5.000000e-01
-5.735829e-01 6.666667e-01 -5.000000e-01
-8.000000e-01 1.000000e+00 -5.000000e-01
-7.757844e-01 6.666667e-01 -5.000000e-01
-1.000000e+00 1.000000e+00 -5.000000e-01
-9.779858e-01 6.666667e-01 -5.000000e-01
-1.200000e+00 1.000000e+00 -5.000000e-01
-1.180187e+00 6.666667e-01 -5.000000e-01
-1.400000e+00 1.000000e+00 -5.000000e-01
-1.382389e+00 6.666667e-01 -5.000000e-01
6.604260e-02 3.333333e-01 5.000000e-01
6.604260e-02 3.333333e-01 3.000000e-01
-1.383602e-01 3.333333e-01 5.000000e-01
-1.383602e-01 3.333333e-01 3.000000e-01
-3.427631e-01 3.333333e-01 5.000000e-01
-3.427631e-01 3.333333e-01 3.000000e-01
-5.471659e-01 3.333333e-01 5.000000e-01
-5.471659e-01 3.333333e-01 3.000000e-01
-7.515687e-01 3.333333e-01 5.000000e-01
-7.515687e-01 3.333333e-01 3.000000e-01
-9.559716e-01 3.333333e-01 5.000000e-01
-9.559716e-01 3.333333e-01 3.000000e-01
-1.160374e+00 3.333333e-01 5.000000e-01
-1.160374e+00 3.333333e-01 3.000000e-01
-1.383602e-01 3.333333e-01 1.000000e-01
-3.427631e-01 3.333333e-01 1.000000e-01
-5.471659e-01 3.333333e-01 1.000000e-01
-7.515687e-01 3.333333e-01 1.000000e-01
-9.559716e-01 3.333333e-01 1.000000e-01
-1.160374e+00 3.333333e-01 1.000000e-01
-1.383602e-01 3.333333e-01 -1.000000e-01
-3.427631e-01 3.333333e-01 -1.000000e-01
-5.471659e-01 3.333333e-01 -1.000000e-01
-7.515687e-01 3.333333e-01 -1.000000e-01
-9.559716e-01 3.333333e-01 -1.000000e-01
-1.160374e+00 3.333333e-01 -1.000000e-01
-1.364777e+00 3.333333e-01 -1.000000e-01
-1.383602e-01 3.333333e-01 -3.000000e-01
-3.427631e-01 3.333333e-01 -3.000000e-01
-5.471659e-01 3.333333e-01 -3.000000e-01
-7.515687e-01 3.333333e-01 -3.000000e-01
-9.559716e-01 3.333333e-01 -3.000000e-01
-1.160374e+00 3.333333e-01 -3.000000e-01
-1.364777e+00 3.333333e-01 -3.000000e-01
-1.383602e-01 3.333333e-01 -5.000000e-01
-3.427631e-01 3.333333e-01 -5.000000e-01
-5.471659e-01 3.333333e-01 -5.000000e-01
-7.515687e-01 3.333333e-01 -5.000000e-01
-9.559716e-01 3.333333e-01 -5.000000e-01
-1.160374e+00 3.333333e-01 -5.000000e-01
-1.364777e+00 3.333333e-01 -5.000000e-01
9.906390e-02 -2.775558e-17 5.000000e-01
9.906390e-02 -5.551115e-17 3.000000e-01
-1.075404e-01 0.000000e+00 5.000000e-01
-1.075404e-01 0.000000e+00 3.000000e-01
-3.141446e-01 0.000000e+00 5.000000e-01
-3.141446e-01 0.000000e+00 3.000000e-01
-5.207489e-01 0.000000e+00 5.000000e-01
-5.207489e-01 0.000000e+00 3.000000e-01
-7.273532e-01 -5.551115e-17 5.000000e-01
-7.273532e-01 0.000000e+00 3.000000e-01
-9.339574e-01 0.000000e+00 5.000000e-01
-9.339574e-01 0.000000e+00 3.000000e-01
-1.140562e+00 0.000000e+00 5.000000e-01
-1.140562e+00 0.000000e+00 3.000000e-01
-1.075404e-01 -2.775558e-17 1.000000e-01
-3.141446e-01 0.000000e+00 1.000000e-01
-5.207489e-01 -2.775558e-17 1.000000e-01
-7.273532e-01 0.000000e+00 1.000000e-01
-9.339574e-01 0.000000e+00 1.000000e-01
-1.140562e+00 -2.775558e-17 1.000000e-01
-1.075404e-01 0.000000e+00 -1.000000e-01
-3.141446e-01 0.000000e+00 -1.000000e-01
-5.207489e-01 -2.775558e-17 -1.000000e-01
-7.273532e-01 0.000000e+00 -1.000000e-01
-9.339574e-01 0.000000e+00 -1.000000e-01
-1.140562e+00 -2.775558e-17 -1.000000e-01
-1.347166e+00 0.000000e+00 -1.000000e-01
-1.075404e-01 -2.775558e-17 -3.000000e-01
-3.141446e-01 0.000000e+00 -3.000000e-01
-5.207489e-01 0.000000e+00 -3.000000e-01
-7.273532e-01 -2.775558e-17 -3.000000e-01
-9.339574e-01 -2.775558e-17 -3.000000e-01
-1.140562e+00 -2.775558e-17 -3.000000e-01
-1.347166e+00 -5.551115e-17 -3.000000e-01
-1.075404e-01 0.000000e+00 -5.000000e-01
-3.141446e-01 0.000000e+00 -5.000000e-01
-5.207489e-01 0.000000e+00 -5.000000e-01
-7.273532e-01 0.000000e+00 -5.000000e-01
-9.339574e-01 0.000000e+00 -5.000000e-01
-1.140562e+00 0.000000e+00 -5.000000e-01
-1.347166e+00 -5.551115e-17 -5.000000e-01
1.320852e-01 -3.333333e-01 5.000000e-01
1.320852e-01 -3.333333e-01 3.000000e-01
-7.672048e-02 -3.333333e-01 5.000000e-01
-7.672048e-02 -3.333333e-01 3.000000e-01
-2.855262e-01 -3.333333e-01 5.000000e-01
-2.855262e-01 -3.333333e-01 3.000000e-01
-4.943318e-01 -3.333333e-01 5.000000e-01
-4.943318e-01 -3.333333e-01 3.000000e-01
-7.031375e-01 -3.333333e-01 5.000000e-01
-7.031375e-01 -3.333333e-01 3.000000e-01
-9.119432e-01 -3.333333e-01 5.000000e-01
-9.119432e-01 -3.333333e-01 3.000000e-01
-7.672048e-02 -3.333333e-01 1.000000e-01
-2.855262e-01 -3.333333e-01 1.000000e-01
-4.943318e-01 -3.333333e-01 1.000000e-01
-7.031375e-01 -3.333333e-01 1.000000e-01
-9.119432e-01 -3.333333e-01 1.000000e-01
-7.672048e-02 -3.333333e-01 -1.000000e-01
-2.855262e-01 -3.333333e-01 -1.000000e-01
-4.943318e-01 -3.333333e-01 -1.000000e-01
-7.031375e-01 -3.333333e-01 -1.000000e-01
-9.119432e-01 -3.333333e-01 -1.000000e-01
-1.120749e+00 -3.333333e-01 -1.000000e-01
-1.329555e+00 -3.333333e-01 -1.000000e-01
-7.672048e-02 -3.333333e-01 -3.000000e-01
-2.855262e-01 -3.333333e-01 -3.000000e-01
-4.943318e-01 -3.333333e-01 -3.000000e-01
-7.031375e-01 -3.333333e-01 -3.000000e-01
-9.119432e-01 -3.333333e-01 -3.000000e-01
-1.120749e+00 -3.333333e-01 -3.000000e-01
-1.329555e+00 -3.333333e-01 -3.000000e-01
-7.672048e-02 -3.333333e-01 -5.000000e-01
-2.855262e-01 -3.333333e-01 -5.000000e-01
-4.943318e-01 -3.333333e-01 -5.000000e-01
-7.031375e-01 -3.333333e-01 -5.000000e-01
-9.119432e-01 -3.333333e-01 -5.000000e-01
-1.120749e+00 -3.333333e-01 -5.000000e-01
-1.329555e+00 -3.333333e-01 -5.000000e-01
1.651065e-01 -6.666667e-01 5.000000e-01
1.651065e-01 -6.666667e-01 3.000000e-01
-4.590059e-02 -6.666667e-01 5.000000e-01
-4.590059e-02 -6.666667e-01 3.000000e-01
-2.569077e-01 -6.666667e-01 5.000000e-01
-2.569077e-01 -6.666667e-01 3.000000e-01
-4.679148e-01 -6.666667e-01 5.000000e-01
-4.679148e-01 -6.666667e-01 3.000000e-01
-6.789219e-01 -6.666667e-01 5.000000e-01
-6.789219e-01 -6.666667e-01 3.000000e-01
-8.899290e-01 -6.666667e-01 5.000000e-01
-8.899290e-01 -6.666667e-01 3.000000e-01
-4.590059e-02 -6.666667e-01 1.000000e-01
-2.569077e-01 -6.666667e-01 1.000000e-01
-4.679148e-01 -6.666667e-01 1.000000e-01
-6.789219e-01 -6.666667e-01 1.000000e-01
-8.899290e-01 -6.666667e-01 1.000000e-01
-4.590059e-02 -6.666667e-01 -1.000000e-01
-2.569077e-01 -6.666667e-01 -1.000000e-01
-4.679148e-01 -6.666667e-01 -1.000000e-01
-6.789219e-01 -6.666667e-01 -1.000000e-01
-8.899290e-01 -6.666667e-01 -1.000000e-01
-1.100936e+00 -6.666667e-01 -1.000000e-01
-1.311943e+00 -6.666667e-01 -1.000000e-01
-4.590059e-02 -6.666667e-01 -3.000000e-01
-2.569077e-01 -6.666667e-01 -3.000000e-01
-4.679148e-01 -6.666667e-01 -3.000000e-01
-6.789219e-01 -6.666667e-01 -3.000000e-01
-8.899290e-01 -6.666667e-01 -3.000000e-01
-1.100936e+00 -6.666667e-01 -3.000000e-01
-1.311943e+00 -6.666667e-01 -3.000000e-01
-4.590059e-02 -6.666667e-01 -5.000000e-01
-2.569077e-01 -6.666667e-01 -5.000000e-01
-4.679148e-01 -6.666667e-01 -5.000000e-01
-6.789219e-01 -6.666667e-01 -5.000000e-01
-8.899290e-01 -6.666667e-01 -5.000000e-01
-1.100936e+00 -6.666667e-01 -5.000000e-01
-1.311943e+00 -6.666667e-01 -5.000000e-01
1.981278e-01 -1.000000e+00 5.000000e-01
1.981278e-01 -1.000000e+00 3.000000e-01
[...]
CELL_DATA 900
SCALARS Density double 1
LOOKUP_TABLE default
1.000000e+00
1.000000e+00
1.000000e+00
1.000000e+00
1.000000e+00
1.000000e+00
1.000000e+00
1.000000e+00
1.000000e+00
1.000000e+00
1.000000e+00
1.000000e+00
1.000000e+00
1.000000e+00
1.000000e+00
1.000000e+00
1.000000e+00
1.000000e+00
1.000000e+00
1.000000e+00
1.000000e+00
1.000000e+00
1.000000e+00
1.000001e+00
1.000000e+00
1.000000e+00
1.000000e+00
1.000000e+00
1.000000e+00
1.000000e+00
1.000000e+00
1.000001e+00
1.000000e+00
1.000000e+00
1.000000e+00
1.000000e+00
1.000000e+00
1.000000e+00
1.000000e+00
1.000001e+00
1.000000e+00
1.000000e+00
1.000000e+00
1.000000e+00
1.000000e+00
1.000000e+00
1.000000e+00
1.000000e+00
1.000000e+00
1.000000e+00
1.000000e+00
1.000000e+00
1.000000e+00
1.000000e+00
1.000000e+00
1.000000e+00
1.000000e+00
1.000000e+00
1.000000e+00
1.000000e+00
1.000000e+00
1.000000e+00
1.000000e+00
1.000001e+00
1.000000e+00
1.000000e+00
1.000000e+00
1.000000e+00
1.000000e+00
1.000000e+00
1.000000e+00
1.000001e+00
1.000000e+00
1.000000e+00
1.000000e+00
1.000000e+00
1.000000e+00
1.000000e+00
1.000000e+00
1.000001e+00
1.000000e+00
1.000000e+00
1.000000e+00
1.000000e+00
1.000000e+00
1.000000e+00
1.000000e+00
1.000000e+00
1.000000e+00
1.000000e+00
1.000000e+00
1.000000e+00
1.000000e+00
1.000000e+00
1.000000e+00
1.000000e+00
1.000000e+00
1.000000e+00
1.000000e+00
1.000000e+00
1.000000e+00
1.000000e+00
1.000000e+00
1.000001e+00
1.000000e+00
1.000000e+00
1.000000e+00
1.000000e+00
1.000000e+00
1.000000e+00
1.000000e+00
1.000001e+00
1.000000e+00
1.000000e+00
1.000000e+00
1.000000e+00
1.000000e+00
1.000000e+00
1.000000e+00
1.000001e+00
1.000000e+00
1.000000e+00
1.000000e+00
1.000000e+00
1.000000e+00
1.000000e+00
1.000000e+00
1.000000e+00
1.000000e+00
1.000000e+00
1.000000e+00
1.000000e+00
1.000000e+00
1.000000e+00
1.000000e+00
1.000000e+00
1.000000e+00
1.000000e+00
1.000000e+00
1.000000e+00
1.000000e+00
1.000000e+00
1.000000e+00
1.000001e+00
1.000000e+00
1.000000e+00
1.000000e+00
1.000000e+00
1.000000e+00
1.000000e+00
1.000000e+00
1.000001e+00
1.000000e+00
1.000000e+00
1.000000e+00
1.000000e+00
1.000000e+00
1.000000e+00
1.000000e+00
1.000001e+00
1.000000e+00
1.000000e+00
1.000000e+00
1.000000e+00
1.000000e+00
1.000000e+00
1.000000e+00
1.000000e+00
1.000000e+00
1.000000e+00
1.000000e+00
1.000000e+00
1.000000e+00
1.000000e+00
1.000000e+00
1.000000e+00
1.000000e+00
1.000000e+00
1.000000e+00
1.000000e+00
1.000000e+00
1.000001e+00
1.000000e+00
1.000000e+00
1.000000e+00
1.000000e+00
1.000000e+00
1.000000e+00
1.000000e+00
1.000001e+00
1.000000e+00
1.000000e+00
1.000000e+00
1.000000e+00
1.000000e+00
1.000000e+00
1.000000e+00
1.000001e+00
1.000000e+00
1.000000e+00
1.000000e+00
1.000000e+00
1.000000e+00
1.000000e+00
1.000000e+00
1.000000e+00
1.000000e+00
1.000000e+00
1.000000e+00
1.000000e+00
1.000000e+00
1.000000e+00
1.000000e+00
1.000000e+00
1.000000e+00
1.000000e+00
1.000000e+00
1.000000e+00
1.000000e+00
1.000001e+00
1.000000e+00
1.000000e+00
1.000000e+00
1.000000e+00
1.000000e+00
1.000000e+00
1.000000e+00
1.000001e+00
1.000000e+00
1.000000e+00
1.000000e+00
1.000000e+00
1.000000e+00
1.000000e+00
1.000000e+00
1.000001e+00
1.000001e+00
1.000011e+00
1.000084e+00
1.000589e+00
1.003214e+00
1.015277e+00
1.051478e+00
1.115866e+00
1.000001e+00
1.000012e+00
1.000092e+00
1.000645e+00
1.003509e+00
1.016567e+00
1.055197e+00
1.120998e+00
1.000012e+00
1.000092e+00
1.000649e+00
1.003528e+00
1.016646e+00
1.055417e+00
1.121256e+00
1.000012e+00
1.000092e+00
1.000645e+00
1.003509e+00
1.016567e+00
1.055197e+00
1.120998e+00
1.000011e+00
1.000084e+00
1.000589e+00
1.003214e+00
1.015277e+00
1.051478e+00
1.115866e+00
1.000001e+00
1.000011e+00
1.000083e+00
1.000593e+00
1.003262e+00
1.015639e+00
1.052872e+00
1.118578e+00
1.000001e+00
1.000012e+00
1.000092e+00
1.000650e+00
1.003563e+00
1.016964e+00
1.056714e+00
1.123897e+00
1.000012e+00
1.000092e+00
1.000653e+00
1.003581e+00
1.017046e+00
1.056942e+00
1.124166e+00
1.000012e+00
1.000092e+00
1.000650e+00
1.003563e+00
1.016964e+00
1.056714e+00
1.123897e+00
1.000011e+00
1.000083e+00
1.000593e+00
1.003262e+00
1.015639e+00
1.052872e+00
1.118578e+00
1.000001e+00
1.000010e+00
1.000078e+00
1.000564e+00
1.003136e+00
1.015215e+00
1.051945e+00
1.117981e+00
1.000001e+00
1.000011e+00
1.000086e+00
1.000619e+00
1.003425e+00
1.016506e+00
1.055724e+00
1.123289e+00
1.000011e+00
1.000087e+00
1.000622e+00
1.003443e+00
1.016585e+00
1.055948e+00
1.123559e+00
1.000011e+00
1.000086e+00
1.000619e+00
1.003425e+00
1.016506e+00
1.055724e+00
1.123289e+00
1.000010e+00
1.000078e+00
1.000564e+00
1.003136e+00
1.015215e+00
1.051945e+00
1.117981e+00
1.000001e+00
1.000009e+00
1.000074e+00
1.000536e+00
1.003008e+00
1.014770e+00
1.050923e+00
1.117218e+00
1.000001e+00
1.000010e+00
1.000081e+00
1.000588e+00
1.003286e+00
1.016023e+00
1.054631e+00
1.122503e+00
1.000010e+00
1.000081e+00
1.000591e+00
1.003303e+00
1.016100e+00
1.054852e+00
1.122774e+00
1.000010e+00
1.000081e+00
1.000588e+00
1.003286e+00
1.016023e+00
1.054631e+00
1.122503e+00
1.000009e+00
1.000074e+00
1.000536e+00
1.003008e+00
1.014770e+00
1.050923e+00
1.117218e+00
1.000000e+00
1.000001e+00
1.000009e+00
1.000069e+00
1.000508e+00
1.002879e+00
1.014303e+00
1.049809e+00
1.116285e+00
1.000000e+00
1.000001e+00
1.000010e+00
1.000076e+00
1.000557e+00
1.003144e+00
1.015515e+00
1.053437e+00
1.121536e+00
1.000010e+00
1.000076e+00
1.000560e+00
1.003160e+00
1.015590e+00
1.053654e+00
1.121807e+00
1.000010e+00
1.000076e+00
1.000557e+00
1.003144e+00
1.015515e+00
1.053437e+00
1.121536e+00
1.000009e+00
1.000069e+00
1.000508e+00
1.002879e+00
1.014303e+00
1.049809e+00
1.116285e+00
1.000000e+00
1.000001e+00
1.000008e+00
1.000061e+00
1.000455e+00
1.002607e+00
1.013163e+00
1.046608e+00
1.112180e+00
1.000000e+00
1.000001e+00
1.000008e+00
1.000067e+00
1.000498e+00
1.002846e+00
1.014275e+00
1.049990e+00
1.117205e+00
1.000008e+00
1.000067e+00
1.000501e+00
1.002861e+00
1.014343e+00
1.050192e+00
1.117466e+00
1.000008e+00
1.000067e+00
1.000498e+00
1.002846e+00
1.014275e+00
1.049990e+00
1.117205e+00
1.000008e+00
1.000061e+00
1.000455e+00
1.002607e+00
1.013163e+00
1.046608e+00
1.112180e+00
1.000000e+00
1.000000e+00
1.000000e+00
1.000000e+00
1.000000e+00
1.000000e+00
1.000000e+00
1.000000e+00
1.000000e+00
1.000000e+00
1.000000e+00
1.000000e+00
1.000000e+00
1.000000e+00
1.000000e+00
1.000000e+00
1.000000e+00
1.000000e+00
1.000000e+00
1.000000e+00
1.000000e+00
1.000000e+00
1.000000e+00
1.000000e+00
1.000000e+00
1.000000e+00
1.000000e+00
1.000000e+00
1.000000e+00
1.000000e+00
1.000000e+00
1.000000e+00
1.000000e+00
1.000000e+00
1.000000e+00
1.000000e+00
1.000000e+00
1.000000e+00
1.000000e+00
1.000000e+00
1.000000e+00
1.000000e+00
1.000000e+00
1.000000e+00
1.000000e+00
1.000000e+00
1.000000e+00
1.000000e+00
1.000000e+00
1.000000e+00
1.000000e+00
1.000000e+00
1.000000e+00
1.000000e+00
1.000000e+00
1.000000e+00
1.000000e+00
1.000000e+00
1.000000e+00
1.000000e+00
1.000000e+00
1.000000e+00
1.000000e+00
1.000000e+00
1.000000e+00
1.000000e+00
1.000000e+00
1.000000e+00
1.000000e+00
1.000000e+00
1.000000e+00
1.000000e+00
1.000000e+00
1.000000e+00
1.000000e+00
1.000000e+00
1.000000e+00
1.000000e+00
1.000000e+00
1.000000e+00
1.000000e+00
1.000000e+00
1.000000e+00
1.000000e+00
1.000000e+00
1.000000e+00
1.000000e+00
1.000000e+00
1.000000e+00
1.000000e+00
1.000000e+00
1.000000e+00
1.000000e+00
1.000000e+00
1.000000e+00
1.000000e+00
1.000000e+00
1.000000e+00
1.000000e+00
1.000000e+00
1.000000e+00
1.000000e+00
1.000000e+00
1.000000e+00
1.000000e+00
1.000000e+00
1.000000e+00
1.000000e+00
1.000000e+00
1.000000e+00
1.000000e+00
1.000000e+00
1.000000e+00
1.000000e+00
1.000000e+00
1.000000e+00
1.000000e+00
1.000000e+00
1.000000e+00
1.000000e+00
1.000000e+00
1.000000e+00
1.000000e+00
1.000000e+00
1.000000e+00
1.000000e+00
1.000000e+00
1.000000e+00
1.000000e+00
1.000000e+00
1.000000e+00
1.000000e+00
1.000000e+00
1.000000e+00
1.000000e+00
1.000000e+00
1.000000e+00
1.000000e+00
1.000000e+00
1.000000e+00
1.000000e+00
1.000000e+00
1.000000e+00
1.000000e+00
1.000000e+00
1.000000e+00
1.000000e+00
1.000000e+00
1.000000e+00
1.000000e+00
1.000000e+00
1.000000e+00
1.000000e+00
1.000000e+00
1.000000e+00
1.000000e+00
1.000000e+00
1.000000e+00
1.000000e+00
1.000000e+00
1.000000e+00
1.000000e+00
1.000000e+00
1.000000e+00
1.000000e+00
1.000000e+00
1.000000e+00
1.000000e+00
1.000000e+00
1.000000e+00
1.000000e+00
1.000000e+00
1.000000e+00
1.000000e+00
1.000000e+00
1.000000e+00
1.000000e+00
1.000000e+00
1.000000e+00
1.000000e+00
1.000000e+00
1.000000e+00
1.000000e+00
1.000000e+00
1.000000e+00
1.000000e+00
1.000000e+00
1.000000e+00
1.000000e+00
1.000000e+00
1.000000e+00
1.000000e+00
1.000000e+00
1.000000e+00
1.000000e+00
1.000000e+00
1.000000e+00
1.000000e+00
1.000000e+00
1.000000e+00
1.000000e+00
1.000000e+00
1.000000e+00
1.000000e+00
1.000000e+00
1.000000e+00
1.000000e+00
1.000000e+00
1.000000e+00
1.000000e+00
1.000000e+00
1.000000e+00
1.000000e+00
1.000000e+00
1.000000e+00
1.000000e+00
1.000000e+00
1.000000e+00
1.000000e+00
1.000000e+00
1.000000e+00
1.000000e+00
1.000000e+00
1.000000e+00
1.000000e+00
1.000000e+00
1.000000e+00
1.000000e+00
1.000000e+00
1.000000e+00
1.000000e+00
1.000000e+00
1.000000e+00
1.000000e+00
1.000000e+00
1.000000e+00
1.000000e+00
1.000000e+00
1.000000e+00
1.000000e+00
1.000000e+00
1.000000e+00
1.000000e+00
1.000000e+00
1.000000e+00
1.000000e+00
1.000000e+00
1.000000e+00
1.000000e+00
1.000000e+00
1.000000e+00
1.000000e+00
1.000000e+00
1.000000e+00
1.000000e+00
1.000000e+00
1.000000e+00
1.000000e+00
1.000000e+00
1.000000e+00
1.000000e+00
1.000000e+00
1.000000e+00
1.000000e+00
1.000000e+00
1.000000e+00
1.000000e+00
1.000000e+00
1.000000e+00
1.000000e+00
1.000000e+00
1.000000e+00
1.000000e+00
1.000000e+00
1.000000e+00
1.000000e+00
1.000000e+00
1.000000e+00
1.000000e+00
1.000000e+00
1.000000e+00
1.000000e+00
1.000000e+00
1.000000e+00
1.000000e+00
1.000000e+00
1.000000e+00
1.000000e+00
1.000000e+00
1.000000e+00
1.000000e+00
1.000000e+00
1.000000e+00
1.000000e+00
1.000000e+00
1.000000e+00
1.000000e+00
1.000000e+00
1.000000e+00
1.000000e+00
1.000000e+00
1.000000e+00
1.000000e+00
1.000000e+00
1.000000e+00
1.000000e+00
1.000000e+00
1.000000e+00
1.000000e+00
1.000000e+00
1.000000e+00
1.000000e+00
1.000000e+00
1.000000e+00
1.000000e+00
1.000000e+00
1.000000e+00
1.000000e+00
1.000000e+00
1.000000e+00
1.000000e+00
1.000000e+00
1.000000e+00
1.000000e+00
1.000000e+00
1.000000e+00
1.000000e+00
1.000000e+00
1.000000e+00
1.000000e+00
1.000000e+00
1.000000e+00
1.000000e+00
1.000000e+00
1.000000e+00
1.000000e+00
1.000000e+00
1.000000e+00
1.000000e+00
1.000000e+00
1.000000e+00
1.000000e+00
1.000000e+00
1.000000e+00
1.000000e+00
1.000000e+00
1.000000e+00
1.000000e+00
1.000000e+00
1.000000e+00
1.000000e+00
1.000000e+00
1.000000e+00
1.000000e+00
1.000000e+00
1.000000e+00
1.000000e+00
1.000000e+00
1.000000e+00
1.000000e+00
1.000000e+00
1.000000e+00
1.000000e+00
1.000000e+00
1.000000e+00
1.000000e+00
1.000000e+00
1.000000e+00
1.000000e+00
1.000000e+00
1.000000e+00
1.000000e+00
1.000000e+00
1.000000e+00
1.000000e+00
1.000000e+00
1.000000e+00
1.000000e+00
1.000000e+00
1.000000e+00
1.000000e+00
1.000000e+00
1.000000e+00
1.000000e+00
1.000000e+00
1.000000e+00
1.000000e+00
1.000000e+00
1.000000e+00
1.000000e+00
1.000000e+00
1.000000e+00
1.000000e+00
1.000000e+00
1.000000e+00
1.000000e+00
1.000000e+00
1.000000e+00
1.000000e+00
1.000000e+00
1.000000e+00
1.000000e+00
1.000000e+00
1.000000e+00
1.000000e+00
1.000000e+00
1.000000e+00
1.000000e+00
1.000000e+00
1.000000e+00
1.000000e+00
1.000000e+00
1.000000e+00
1.000000e+00
1.000000e+00
1.000000e+00
1.000000e+00
1.000000e+00
1.000000e+00
1.000000e+00
1.000000e+00
1.000000e+00
1.000000e+00
1.000000e+00
1.000000e+00
1.000000e+00
1.000000e+00
1.000000e+00
1.000000e+00
1.000000e+00
1.000000e+00
1.000000e+00
1.000000e+00
1.000000e+00
1.000000e+00
1.000000e+00
1.000000e+00
1.000000e+00
VECTORS Momentum double
1.752820e-15 1.521602e-15 -1.001077e-16
7.738834e-14 6.924403e-15 9.040372e-16
1.334020e-12 1.103136e-13 1.817505e-14
2.067770e-11 1.580942e-12 3.025094e-13
3.008563e-10 2.116412e-11 4.628984e-12
3.978425e-09 2.553120e-10 6.655331e-11
4.926826e-08 2.870023e-09 8.673759e-10
5.399659e-07 2.821966e-08 1.056143e-08
3.293392e-15 3.598064e-16 -1.113149e-17
8.615058e-14 7.656965e-15 3.821289e-16
1.480326e-12 1.224062e-13 8.681174e-15
2.292776e-11 1.751807e-12 1.439747e-13
3.334086e-10 2.345237e-11 2.212134e-12
4.405977e-09 2.827422e-10 3.176903e-11
5.451986e-08 3.175861e-09 4.136739e-10
5.969668e-07 3.119824e-08 5.031322e-09
8.665734e-14 7.691158e-15 1.399588e-17
1.488481e-12 1.230247e-13 -2.189970e-20
2.306416e-11 1.763165e-12 1.629072e-27
3.353689e-10 2.358874e-11 2.656430e-25
4.431718e-09 2.843931e-10 -3.596680e-26
5.483610e-08 3.194295e-09 7.815325e-24
6.004000e-07 3.137787e-08 8.329639e-22
6.143611e-06 2.862892e-07 3.509248e-20
8.615746e-14 7.660659e-15 -4.517497e-16
1.480326e-12 1.224061e-13 -8.682792e-15
2.292776e-11 1.751807e-12 -1.439747e-13
3.334086e-10 2.345237e-11 -2.212134e-12
4.405977e-09 2.827422e-10 -3.176903e-11
5.451986e-08 3.175861e-09 -4.136739e-10
5.969668e-07 3.119824e-08 -5.031322e-09
6.108902e-06 2.846687e-07 -5.390753e-08
7.747964e-14 6.852022e-15 -9.345622e-16
1.334043e-12 1.103020e-13 -1.817516e-14
2.067770e-11 1.580944e-12 -3.025097e-13
3.008563e-10 2.116412e-11 -4.628985e-12
3.978425e-09 2.553120e-10 -6.655331e-11
4.926826e-08 2.870023e-09 -8.673759e-10
5.399659e-07 2.821966e-08 -1.056143e-08
5.531930e-06 2.577788e-07 -1.133235e-07
-9.643608e-15 8.531634e-14 -4.065180e-15
6.784882e-14 1.021560e-14 5.944235e-16
1.223025e-12 9.846744e-14 1.662112e-14
1.916718e-11 1.402816e-12 2.785073e-13
2.819892e-10 1.887677e-11 4.335753e-12
3.769069e-09 2.279564e-10 6.305961e-11
4.719341e-08 2.566178e-09 8.306857e-10
5.226196e-07 2.504900e-08 1.022737e-08
2.989613e-15 3.330461e-15 -2.306922e-15
7.782967e-14 6.675693e-15 2.724487e-16
1.356269e-12 1.079875e-13 7.897440e-15
2.125251e-11 1.554810e-12 1.332544e-13
3.125094e-10 2.091878e-11 2.070804e-12
4.174250e-09 2.524412e-10 3.010166e-11
5.222585e-08 2.839533e-09 3.962007e-10
5.778176e-07 2.769113e-08 4.872550e-09
7.824581e-14 6.692130e-15 -1.558202e-17
1.364505e-12 1.086663e-13 -1.040581e-18
2.137779e-11 1.564731e-12 -4.363675e-20
3.143459e-10 2.104105e-11 -9.096000e-25
4.198654e-09 2.539164e-10 -1.722743e-22
5.252901e-08 2.856011e-09 -2.305160e-20
5.811438e-07 2.785049e-08 -1.947768e-20
6.011716e-06 2.527173e-07 3.919849e-20
7.830165e-14 5.894532e-15 -4.815068e-16
1.356284e-12 1.078752e-13 -7.924461e-15
2.125251e-11 1.554806e-12 -1.332553e-13
3.125094e-10 2.091878e-11 -2.070805e-12
4.174250e-09 2.524412e-10 -3.010166e-11
5.222585e-08 2.839533e-09 -3.962007e-10
5.778176e-07 2.769113e-08 -4.872550e-09
5.977710e-06 2.512883e-07 -5.275419e-08
7.315402e-14 2.565972e-15 -9.578085e-16
1.223206e-12 9.642851e-14 -1.667117e-14
1.916720e-11 1.402758e-12 -2.785091e-13
2.819892e-10 1.887677e-11 -4.335753e-12
3.769069e-09 2.279564e-10 -6.305961e-11
4.719341e-08 2.566178e-09 -8.306857e-10
5.226196e-07 2.504900e-08 -1.022737e-08
5.412785e-06 2.275756e-07 -1.108880e-07
-2.787325e-13 -1.131564e-13 -2.758360e-13
-7.886616e-14 -1.067746e-14 -1.395073e-14
1.049254e-12 8.036472e-14 1.078421e-14
1.673845e-11 1.185720e-12 2.431475e-13
2.489669e-10 1.605274e-11 3.829929e-12
3.363516e-09 1.944069e-10 5.626982e-11
4.257507e-08 2.195314e-09 7.492262e-10
4.765069e-07 2.134370e-08 9.324904e-09
7.913144e-14 2.230001e-15 -1.509312e-13
6.124270e-14 5.176748e-15 -7.368950e-15
1.171494e-12 9.063777e-14 5.026014e-15
1.856266e-11 1.315070e-12 1.167929e-13
2.759118e-10 1.778935e-11 1.829529e-12
3.725090e-09 2.152767e-10 2.686109e-11
4.711489e-08 2.428976e-09 3.573465e-10
5.268324e-07 2.359218e-08 4.442579e-09
6.739419e-14 5.795667e-15 -1.359072e-15
1.179042e-12 9.142205e-14 -1.826061e-16
1.867235e-11 1.323392e-12 -2.009395e-18
2.775334e-10 1.789386e-11 -6.651236e-19
3.746867e-09 2.165341e-10 -5.792020e-19
4.738838e-08 2.443056e-09 -6.272860e-19
5.298650e-07 2.372773e-08 -9.995459e-19
5.541315e-06 2.147966e-07 6.750457e-19
9.712627e-14 9.494927e-15 -6.786724e-15
1.172806e-12 9.096050e-14 -8.541585e-15
1.856283e-11 1.315098e-12 -1.168945e-13
2.759119e-10 1.778935e-11 -1.829547e-12
3.725090e-09 2.152767e-10 -2.686110e-11
4.711489e-08 2.428976e-09 -3.573465e-10
5.268324e-07 2.359218e-08 -4.442579e-09
5.509971e-06 2.135853e-07 -4.860988e-08
2.014611e-13 2.247398e-14 -1.050147e-14
1.062368e-12 8.335805e-14 -1.721138e-14
1.674178e-11 1.186130e-12 -2.433350e-13
2.489670e-10 1.605275e-11 -3.829922e-12
3.363516e-09 1.944069e-10 -5.626981e-11
4.257507e-08 2.195314e-09 -7.492262e-10
4.765069e-07 2.134370e-08 -9.324904e-09
4.989277e-06 1.934653e-07 -1.021774e-07
2.637366e-13 -6.094850e-14 2.572803e-13
1.832165e-13 1.261168e-14 8.474991e-15
9.155478e-13 6.997833e-14 1.467892e-14
1.460941e-11 1.033850e-12 2.124757e-13
2.196034e-10 1.413694e-11 3.378538e-12
2.998327e-09 1.729134e-10 5.016120e-11
3.835992e-08 1.972352e-09 6.749281e-10
4.338505e-07 1.935473e-08 8.490165e-09
-6.815539e-14 -1.014972e-14 1.456996e-13
6.553224e-14 5.694810e-15 4.495447e-15
1.011274e-12 7.831600e-14 7.386412e-15
1.619904e-11 1.146412e-12 1.026490e-13
2.433705e-10 1.566464e-11 1.613752e-12
3.320625e-09 1.914740e-10 2.394452e-11
4.245002e-08 2.182252e-09 3.219082e-10
4.796670e-07 2.139322e-08 4.044853e-09
5.618646e-14 4.853496e-15 1.414030e-15
1.018194e-12 7.889104e-14 3.323711e-16
1.629429e-11 1.153023e-12 1.380371e-17
2.447997e-10 1.575638e-11 3.624885e-19
3.340038e-09 1.925918e-10 6.061552e-19
4.269642e-08 2.194900e-09 5.775944e-19
4.824280e-07 2.151610e-08 -2.922731e-19
5.099628e-06 1.966439e-07 -4.708176e-19
3.141824e-14 3.249662e-15 6.035999e-15
1.009929e-12 7.830284e-14 -4.389886e-15
1.619873e-11 1.146386e-12 -1.024225e-13
2.433704e-10 1.566464e-11 -1.613739e-12
3.320625e-09 1.914740e-10 -2.394451e-11
4.245002e-08 2.182252e-09 -3.219081e-10
4.796670e-07 2.139322e-08 -4.044853e-09
5.070786e-06 1.955354e-07 -4.472139e-08
-8.097557e-14 -4.506404e-15 8.952461e-15
9.060795e-13 7.116841e-14 -9.555693e-15
1.460659e-11 1.033678e-12 -2.120625e-13
2.196031e-10 1.413693e-11 -3.378552e-12
2.998327e-09 1.729134e-10 -5.016121e-11
3.835992e-08 1.972352e-09 -6.749281e-10
4.338505e-07 1.935473e-08 -8.490165e-09
4.591643e-06 1.771213e-07 -9.400503e-08
1.021265e-14 8.442070e-14 4.829358e-15
4.541515e-14 6.132908e-15 7.709636e-16
7.861303e-13 6.027714e-14 1.038513e-14
1.272777e-11 8.743791e-13 1.851164e-13
1.933611e-10 1.202333e-11 2.971505e-12
2.667888e-09 1.474333e-10 4.462697e-11
3.449715e-08 1.685532e-09 6.067876e-10
6.900144e-16 5.980325e-15 2.744299e-15
4.776939e-14 3.955384e-15 4.129773e-16
8.717982e-13 6.598064e-14 5.027447e-15
1.411246e-11 9.696439e-13 8.888084e-14
2.142863e-10 1.332201e-11 1.419123e-12
2.954644e-09 1.632481e-10 2.130242e-11
3.817502e-08 1.864745e-09 2.894045e-10
4.795970e-14 3.926832e-15 3.845470e-17
8.772890e-13 6.625209e-14 1.722578e-18
1.419550e-11 9.746561e-13 2.219255e-20
2.155451e-10 1.340034e-11 1.789662e-26
2.971915e-09 1.642014e-10 2.960856e-24
3.839657e-08 1.875541e-09 7.863480e-23
4.383800e-07 1.829459e-08 1.803040e-21
4.683820e-06 1.664225e-07 1.779213e-20
4.737486e-14 3.074173e-15 -5.135934e-17
8.717595e-13 6.577815e-14 -4.993887e-15
1.411246e-11 9.696355e-13 -8.886693e-14
2.142863e-10 1.332201e-11 -1.419123e-12
2.954644e-09 1.632481e-10 -2.130242e-11
3.817502e-08 1.864745e-09 -2.894045e-10
4.358715e-07 1.819030e-08 -3.675152e-09
4.657335e-06 1.654871e-07 -4.105583e-08
4.105464e-14 -2.618678e-16 -1.534040e-16
7.858120e-13 5.849455e-14 -1.032562e-14
1.272773e-11 8.742427e-13 -1.850897e-13
1.933611e-10 1.202333e-11 -2.971506e-12
2.667888e-09 1.474333e-10 -4.462697e-11
3.449715e-08 1.685532e-09 -6.067876e-10
3.942433e-07 1.645926e-08 -7.714289e-09
4.217328e-06 1.499344e-07 -8.630186e-08
1.710322e-15 2.048883e-15 8.041511e-17
3.391127e-14 2.845817e-15 3.701133e-16
6.348833e-13 4.482920e-14 8.439451e-15
1.039969e-11 6.613346e-13 1.516785e-13
1.597742e-10 9.105910e-12 2.453206e-12
2.228671e-09 1.110089e-10 3.724173e-11
2.914825e-08 1.262320e-09 5.118791e-10
8.238508e-16 1.399224e-16 4.659244e-17
3.771239e-14 2.996446e-15 1.796318e-16