# vtk DataFile Version 2.0
Simplicial Mesh Example
ASCII
DATASET UNSTRUCTURED_GRID
POINTS 1302 double
0.000000e+00 1.000000e+00 5.000000e-01
-5.551115e-17 1.000000e+00 3.000000e-01
3.302130e-02 6.666667e-01 5.000000e-01
3.302130e-02 6.666667e-01 3.000000e-01
-2.000000e-01 1.000000e+00 5.000000e-01
-2.000000e-01 1.000000e+00 3.000000e-01
-1.691801e-01 6.666667e-01 5.000000e-01
-1.691801e-01 6.666667e-01 3.000000e-01
-4.000000e-01 1.000000e+00 5.000000e-01
-4.000000e-01 1.000000e+00 3.000000e-01
-3.713816e-01 6.666667e-01 5.000000e-01
-3.713816e-01 6.666667e-01 3.000000e-01
-6.000000e-01 1.000000e+00 5.000000e-01
-6.000000e-01 1.000000e+00 3.000000e-01
-5.735829e-01 6.666667e-01 5.000000e-01
-5.735829e-01 6.666667e-01 3.000000e-01
-8.000000e-01 1.000000e+00 5.000000e-01
-8.000000e-01 1.000000e+00 3.000000e-01
-7.757844e-01 6.666667e-01 5.000000e-01
-7.757844e-01 6.666667e-01 3.000000e-01
-1.000000e+00 1.000000e+00 5.000000e-01
-1.000000e+00 1.000000e+00 3.000000e-01
-9.779858e-01 6.666667e-01 5.000000e-01
-9.779858e-01 6.666667e-01 3.000000e-01
-1.200000e+00 1.000000e+00 5.000000e-01
-1.200000e+00 1.000000e+00 3.000000e-01
-1.180187e+00 6.666667e-01 5.000000e-01
-1.180187e+00 6.666667e-01 3.000000e-01
-2.000000e-01 1.000000e+00 1.000000e-01
-1.691801e-01 6.666667e-01 1.000000e-01
-4.000000e-01 1.000000e+00 1.000000e-01
-3.713816e-01 6.666667e-01 1.000000e-01
-6.000000e-01 1.000000e+00 1.000000e-01
-5.735829e-01 6.666667e-01 1.000000e-01
-8.000000e-01 1.000000e+00 1.000000e-01
-7.757844e-01 6.666667e-01 1.000000e-01
-1.000000e+00 1.000000e+00 1.000000e-01
-9.779858e-01 6.666667e-01 1.000000e-01
-1.200000e+00 1.000000e+00 1.000000e-01
-1.180187e+00 6.666667e-01 1.000000e-01
-2.000000e-01 1.000000e+00 -1.000000e-01
-1.691801e-01 6.666667e-01 -1.000000e-01
-4.000000e-01 1.000000e+00 -1.000000e-01
-3.713816e-01 6.666667e-01 -1.000000e-01
-6.000000e-01 1.000000e+00 -1.000000e-01
-5.735829e-01 6.666667e-01 -1.000000e-01
-8.000000e-01 1.000000e+00 -1.000000e-01
-7.757844e-01 6.666667e-01 -1.000000e-01
-1.000000e+00 1.000000e+00 -1.000000e-01
-9.779858e-01 6.666667e-01 -1.000000e-01
-1.200000e+00 1.000000e+00 -1.000000e-01
-1.180187e+00 6.666667e-01 -1.000000e-01
-1.400000e+00 1.000000e+00 -1.000000e-01
-1.382389e+00 6.666667e-01 -1.000000e-01
-2.000000e-01 1.000000e+00 -3.000000e-01
-1.691801e-01 6.666667e-01 -3.000000e-01
-4.000000e-01 1.000000e+00 -3.000000e-01
-3.713816e-01 6.666667e-01 -3.000000e-01
-6.000000e-01 1.000000e+00 -3.000000e-01
-5.735829e-01 6.666667e-01 -3.000000e-01
-8.000000e-01 1.000000e+00 -3.000000e-01
-7.757844e-01 6.666667e-01 -3.000000e-01
-1.000000e+00 1.000000e+00 -3.000000e-01
-9.779858e-01 6.666667e-01 -3.000000e-01
-1.200000e+00 1.000000e+00 -3.000000e-01
-1.180187e+00 6.666667e-01 -3.000000e-01
-1.400000e+00 1.000000e+00 -3.000000e-01
-1.382389e+00 6.666667e-01 -3.000000e-01
-2.000000e-01 1.000000e+00 -5.000000e-01
-1.691801e-01 6.666667e-01 -5.000000e-01
-4.000000e-01 1.000000e+00 -5.000000e-01
-3.713816e-01 6.666667e-01 -5.000000e-01
-6.000000e-01 1.000000e+00 -5.000000e-01
-5.735829e-01 6.666667e-01 -5.000000e-01
-8.000000e-01 1.000000e+00 -5.000000e-01
-7.757844e-01 6.666667e-01 -5.000000e-01
-1.000000e+00 1.000000e+00 -5.000000e-01
-9.779858e-01 6.666667e-01 -5.000000e-01
-1.200000e+00 1.000000e+00 -5.000000e-01
-1.180187e+00 6.666667e-01 -5.000000e-01
-1.400000e+00 1.000000e+00 -5.000000e-01
-1.382389e+00 6.666667e-01 -5.000000e-01
6.604260e-02 3.333333e-01 5.000000e-01
6.604260e-02 3.333333e-01 3.000000e-01
-1.383602e-01 3.333333e-01 5.000000e-01
-1.383602e-01 3.333333e-01 3.000000e-01
-3.427631e-01 3.333333e-01 5.000000e-01
-3.427631e-01 3.333333e-01 3.000000e-01
-5.471659e-01 3.333333e-01 5.000000e-01
-5.471659e-01 3.333333e-01 3.000000e-01
-7.515687e-01 3.333333e-01 5.000000e-01
-7.515687e-01 3.333333e-01 3.000000e-01
-9.559716e-01 3.333333e-01 5.000000e-01
-9.559716e-01 3.333333e-01 3.000000e-01
-1.160374e+00 3.333333e-01 5.000000e-01
-1.160374e+00 3.333333e-01 3.000000e-01
-1.383602e-01 3.333333e-01 1.000000e-01
-3.427631e-01 3.333333e-01 1.000000e-01
-5.471659e-01 3.333333e-01 1.000000e-01
-7.515687e-01 3.333333e-01 1.000000e-01
-9.559716e-01 3.333333e-01 1.000000e-01
-1.160374e+00 3.333333e-01 1.000000e-01
-1.383602e-01 3.333333e-01 -1.000000e-01
-3.427631e-01 3.333333e-01 -1.000000e-01
-5.471659e-01 3.333333e-01 -1.000000e-01
-7.515687e-01 3.333333e-01 -1.000000e-01
-9.559716e-01 3.333333e-01 -1.000000e-01
-1.160374e+00 3.333333e-01 -1.000000e-01
-1.364777e+00 3.333333e-01 -1.000000e-01
-1.383602e-01 3.333333e-01 -3.000000e-01
-3.427631e-01 3.333333e-01 -3.000000e-01
-5.471659e-01 3.333333e-01 -3.000000e-01
-7.515687e-01 3.333333e-01 -3.000000e-01
-9.559716e-01 3.333333e-01 -3.000000e-01
-1.160374e+00 3.333333e-01 -3.000000e-01
-1.364777e+00 3.333333e-01 -3.000000e-01
-1.383602e-01 3.333333e-01 -5.000000e-01
-3.427631e-01 3.333333e-01 -5.000000e-01
-5.471659e-01 3.333333e-01 -5.000000e-01
-7.515687e-01 3.333333e-01 -5.000000e-01
-9.559716e-01 3.333333e-01 -5.000000e-01
-1.160374e+00 3.333333e-01 -5.000000e-01
-1.364777e+00 3.333333e-01 -5.000000e-01
9.906390e-02 -2.775558e-17 5.000000e-01
9.906390e-02 -5.551115e-17 3.000000e-01
-1.075404e-01 0.000000e+00 5.000000e-01
-1.075404e-01 0.000000e+00 3.000000e-01
-3.141446e-01 0.000000e+00 5.000000e-01
-3.141446e-01 0.000000e+00 3.000000e-01
-5.207489e-01 0.000000e+00 5.000000e-01
-5.207489e-01 0.000000e+00 3.000000e-01
-7.273532e-01 -5.551115e-17 5.000000e-01
-7.273532e-01 0.000000e+00 3.000000e-01
-9.339574e-01 0.000000e+00 5.000000e-01
-9.339574e-01 0.000000e+00 3.000000e-01
-1.140562e+00 0.000000e+00 5.000000e-01
-1.140562e+00 0.000000e+00 3.000000e-01
-1.075404e-01 -2.775558e-17 1.000000e-01
-3.141446e-01 0.000000e+00 1.000000e-01
-5.207489e-01 -2.775558e-17 1.000000e-01
-7.273532e-01 0.000000e+00 1.000000e-01
-9.339574e-01 0.000000e+00 1.000000e-01
-1.140562e+00 -2.775558e-17 1.000000e-01
-1.075404e-01 0.000000e+00 -1.000000e-01
-3.141446e-01 0.000000e+00 -1.000000e-01
-5.207489e-01 -2.775558e-17 -1.000000e-01
-7.273532e-01 0.000000e+00 -1.000000e-01
-9.339574e-01 0.000000e+00 -1.000000e-01
-1.140562e+00 -2.775558e-17 -1.000000e-01
-1.347166e+00 0.000000e+00 -1.000000e-01
-1.075404e-01 -2.775558e-17 -3.000000e-01
-3.141446e-01 0.000000e+00 -3.000000e-01
-5.207489e-01 0.000000e+00 -3.000000e-01
-7.273532e-01 -2.775558e-17 -3.000000e-01
-9.339574e-01 -2.775558e-17 -3.000000e-01
-1.140562e+00 -2.775558e-17 -3.000000e-01
-1.347166e+00 -5.551115e-17 -3.000000e-01
-1.075404e-01 0.000000e+00 -5.000000e-01
-3.141446e-01 0.000000e+00 -5.000000e-01
-5.207489e-01 0.000000e+00 -5.000000e-01
-7.273532e-01 0.000000e+00 -5.000000e-01
-9.339574e-01 0.000000e+00 -5.000000e-01
-1.140562e+00 0.000000e+00 -5.000000e-01
-1.347166e+00 -5.551115e-17 -5.000000e-01
1.320852e-01 -3.333333e-01 5.000000e-01
1.320852e-01 -3.333333e-01 3.000000e-01
-7.672048e-02 -3.333333e-01 5.000000e-01
-7.672048e-02 -3.333333e-01 3.000000e-01
-2.855262e-01 -3.333333e-01 5.000000e-01
-2.855262e-01 -3.333333e-01 3.000000e-01
-4.943318e-01 -3.333333e-01 5.000000e-01
-4.943318e-01 -3.333333e-01 3.000000e-01
-7.031375e-01 -3.333333e-01 5.000000e-01
-7.031375e-01 -3.333333e-01 3.000000e-01
-9.119432e-01 -3.333333e-01 5.000000e-01
-9.119432e-01 -3.333333e-01 3.000000e-01
-7.672048e-02 -3.333333e-01 1.000000e-01
-2.855262e-01 -3.333333e-01 1.000000e-01
-4.943318e-01 -3.333333e-01 1.000000e-01
-7.031375e-01 -3.333333e-01 1.000000e-01
-9.119432e-01 -3.333333e-01 1.000000e-01
-7.672048e-02 -3.333333e-01 -1.000000e-01
-2.855262e-01 -3.333333e-01 -1.000000e-01
-4.943318e-01 -3.333333e-01 -1.000000e-01
-7.031375e-01 -3.333333e-01 -1.000000e-01
-9.119432e-01 -3.333333e-01 -1.000000e-01
-1.120749e+00 -3.333333e-01 -1.000000e-01
-1.329555e+00 -3.333333e-01 -1.000000e-01
-7.672048e-02 -3.333333e-01 -3.000000e-01
-2.855262e-01 -3.333333e-01 -3.000000e-01
-4.943318e-01 -3.333333e-01 -3.000000e-01
-7.031375e-01 -3.333333e-01 -3.000000e-01
-9.119432e-01 -3.333333e-01 -3.000000e-01
-1.120749e+00 -3.333333e-01 -3.000000e-01
-1.329555e+00 -3.333333e-01 -3.000000e-01
-7.672048e-02 -3.333333e-01 -5.000000e-01
-2.855262e-01 -3.333333e-01 -5.000000e-01
-4.943318e-01 -3.333333e-01 -5.000000e-01
-7.031375e-01 -3.333333e-01 -5.000000e-01
-9.119432e-01 -3.333333e-01 -5.000000e-01
-1.120749e+00 -3.333333e-01 -5.000000e-01
-1.329555e+00 -3.333333e-01 -5.000000e-01
1.651065e-01 -6.666667e-01 5.000000e-01
1.651065e-01 -6.666667e-01 3.000000e-01
-4.590059e-02 -6.666667e-01 5.000000e-01
-4.590059e-02 -6.666667e-01 3.000000e-01
-2.569077e-01 -6.666667e-01 5.000000e-01
-2.569077e-01 -6.666667e-01 3.000000e-01
-4.679148e-01 -6.666667e-01 5.000000e-01
-4.679148e-01 -6.666667e-01 3.000000e-01
-6.789219e-01 -6.666667e-01 5.000000e-01
-6.789219e-01 -6.666667e-01 3.000000e-01
-8.899290e-01 -6.666667e-01 5.000000e-01
-8.899290e-01 -6.666667e-01 3.000000e-01
-4.590059e-02 -6.666667e-01 1.000000e-01
-2.569077e-01 -6.666667e-01 1.000000e-01
-4.679148e-01 -6.666667e-01 1.000000e-01
-6.789219e-01 -6.666667e-01 1.000000e-01
-8.899290e-01 -6.666667e-01 1.000000e-01
-4.590059e-02 -6.666667e-01 -1.000000e-01
-2.569077e-01 -6.666667e-01 -1.000000e-01
-4.679148e-01 -6.666667e-01 -1.000000e-01
-6.789219e-01 -6.666667e-01 -1.000000e-01
-8.899290e-01 -6.666667e-01 -1.000000e-01
-1.100936e+00 -6.666667e-01 -1.000000e-01
-1.311943e+00 -6.666667e-01 -1.000000e-01
-4.590059e-02 -6.666667e-01 -3.000000e-01
-2.569077e-01 -6.666667e-01 -3.000000e-01
-4.679148e-01 -6.666667e-01 -3.000000e-01
-6.789219e-01 -6.666667e-01 -3.000000e-01
-8.899290e-01 -6.666667e-01 -3.000000e-01
-1.100936e+00 -6.666667e-01 -3.000000e-01
-1.311943e+00 -6.666667e-01 -3.000000e-01
-4.590059e-02 -6.666667e-01 -5.000000e-01
-2.569077e-01 -6.666667e-01 -5.000000e-01
-4.679148e-01 -6.666667e-01 -5.000000e-01
-6.789219e-01 -6.666667e-01 -5.000000e-01
-8.899290e-01 -6.666667e-01 -5.000000e-01
-1.100936e+00 -6.666667e-01 -5.000000e-01
-1.311943e+00 -6.666667e-01 -5.000000e-01
1.981278e-01 -1.000000e+00 5.000000e-01
1.981278e-01 -1.000000e+00 3.000000e-01
[...]
CELL_DATA 900
SCALARS Density double 1
LOOKUP_TABLE default
1.000000e+00
1.000000e+00
1.000000e+00
1.000000e+00
1.000000e+00
1.000000e+00
1.000000e+00
1.000000e+00
1.000000e+00
1.000000e+00
1.000000e+00
1.000000e+00
1.000000e+00
1.000000e+00
1.000000e+00
1.000000e+00
1.000000e+00
1.000000e+00
1.000000e+00
1.000000e+00
1.000000e+00
1.000000e+00
1.000000e+00
1.000002e+00
1.000000e+00
1.000000e+00
1.000000e+00
1.000000e+00
1.000000e+00
1.000000e+00
1.000000e+00
1.000002e+00
1.000000e+00
1.000000e+00
1.000000e+00
1.000000e+00
1.000000e+00
1.000000e+00
1.000000e+00
1.000002e+00
1.000000e+00
1.000000e+00
1.000000e+00
1.000000e+00
1.000000e+00
1.000000e+00
1.000000e+00
1.000000e+00
1.000000e+00
1.000000e+00
1.000000e+00
1.000000e+00
1.000000e+00
1.000000e+00
1.000000e+00
1.000000e+00
1.000000e+00
1.000000e+00
1.000000e+00
1.000000e+00
1.000000e+00
1.000000e+00
1.000000e+00
1.000002e+00
1.000000e+00
1.000000e+00
1.000000e+00
1.000000e+00
1.000000e+00
1.000000e+00
1.000000e+00
1.000002e+00
1.000000e+00
1.000000e+00
1.000000e+00
1.000000e+00
1.000000e+00
1.000000e+00
1.000000e+00
1.000002e+00
1.000000e+00
1.000000e+00
1.000000e+00
1.000000e+00
1.000000e+00
1.000000e+00
1.000000e+00
1.000000e+00
1.000000e+00
1.000000e+00
1.000000e+00
1.000000e+00
1.000000e+00
1.000000e+00
1.000000e+00
1.000000e+00
1.000000e+00
1.000000e+00
1.000000e+00
1.000000e+00
1.000000e+00
1.000000e+00
1.000000e+00
1.000002e+00
1.000000e+00
1.000000e+00
1.000000e+00
1.000000e+00
1.000000e+00
1.000000e+00
1.000000e+00
1.000002e+00
1.000000e+00
1.000000e+00
1.000000e+00
1.000000e+00
1.000000e+00
1.000000e+00
1.000000e+00
1.000002e+00
1.000000e+00
1.000000e+00
1.000000e+00
1.000000e+00
1.000000e+00
1.000000e+00
1.000000e+00
1.000000e+00
1.000000e+00
1.000000e+00
1.000000e+00
1.000000e+00
1.000000e+00
1.000000e+00
1.000000e+00
1.000000e+00
1.000000e+00
1.000000e+00
1.000000e+00
1.000000e+00
1.000000e+00
1.000000e+00
1.000000e+00
1.000002e+00
1.000000e+00
1.000000e+00
1.000000e+00
1.000000e+00
1.000000e+00
1.000000e+00
1.000000e+00
1.000002e+00
1.000000e+00
1.000000e+00
1.000000e+00
1.000000e+00
1.000000e+00
1.000000e+00
1.000000e+00
1.000002e+00
1.000000e+00
1.000000e+00
1.000000e+00
1.000000e+00
1.000000e+00
1.000000e+00
1.000000e+00
1.000000e+00
1.000000e+00
1.000000e+00
1.000000e+00
1.000000e+00
1.000000e+00
1.000000e+00
1.000000e+00
1.000000e+00
1.000000e+00
1.000000e+00
1.000000e+00
1.000000e+00
1.000000e+00
1.000002e+00
1.000000e+00
1.000000e+00
1.000000e+00
1.000000e+00
1.000000e+00
1.000000e+00
1.000000e+00
1.000002e+00
1.000000e+00
1.000000e+00
1.000000e+00
1.000000e+00
1.000000e+00
1.000000e+00
1.000000e+00
1.000002e+00
1.000000e+00
1.000000e+00
1.000000e+00
1.000000e+00
1.000000e+00
1.000000e+00
1.000000e+00
1.000000e+00
1.000000e+00
1.000000e+00
1.000000e+00
1.000000e+00
1.000000e+00
1.000000e+00
1.000000e+00
1.000000e+00
1.000000e+00
1.000000e+00
1.000000e+00
1.000000e+00
1.000000e+00
1.000001e+00
1.000000e+00
1.000000e+00
1.000000e+00
1.000000e+00
1.000000e+00
1.000000e+00
1.000000e+00
1.000001e+00
1.000000e+00
1.000000e+00
1.000000e+00
1.000000e+00
1.000000e+00
1.000000e+00
1.000000e+00
1.000001e+00
1.000002e+00
1.000017e+00
1.000124e+00
1.000812e+00
1.004158e+00
1.018306e+00
1.057904e+00
1.120011e+00
1.000002e+00
1.000019e+00
1.000137e+00
1.000894e+00
1.004561e+00
1.019930e+00
1.062258e+00
1.125466e+00
1.000019e+00
1.000138e+00
1.000900e+00
1.004588e+00
1.020035e+00
1.062528e+00
1.125742e+00
1.000019e+00
1.000137e+00
1.000894e+00
1.004561e+00
1.019930e+00
1.062258e+00
1.125466e+00
1.000017e+00
1.000124e+00
1.000812e+00
1.004158e+00
1.018306e+00
1.057904e+00
1.120011e+00
1.000002e+00
1.000017e+00
1.000124e+00
1.000821e+00
1.004237e+00
1.018809e+00
1.059658e+00
1.123020e+00
1.000002e+00
1.000019e+00
1.000137e+00
1.000904e+00
1.004649e+00
1.020485e+00
1.064171e+00
1.128687e+00
1.000019e+00
1.000138e+00
1.000910e+00
1.004677e+00
1.020594e+00
1.064451e+00
1.128974e+00
1.000019e+00
1.000137e+00
1.000904e+00
1.004649e+00
1.020485e+00
1.064171e+00
1.128687e+00
1.000017e+00
1.000124e+00
1.000821e+00
1.004237e+00
1.018809e+00
1.059658e+00
1.123020e+00
1.000002e+00
1.000016e+00
1.000117e+00
1.000782e+00
1.004076e+00
1.018314e+00
1.058663e+00
1.122468e+00
1.000002e+00
1.000018e+00
1.000129e+00
1.000861e+00
1.004473e+00
1.019947e+00
1.063107e+00
1.128128e+00
1.000018e+00
1.000130e+00
1.000866e+00
1.004499e+00
1.020053e+00
1.063384e+00
1.128417e+00
1.000018e+00
1.000129e+00
1.000861e+00
1.004473e+00
1.019947e+00
1.063107e+00
1.128128e+00
1.000016e+00
1.000117e+00
1.000782e+00
1.004076e+00
1.018314e+00
1.058663e+00
1.122468e+00
1.000002e+00
1.000015e+00
1.000110e+00
1.000743e+00
1.003911e+00
1.017785e+00
1.057541e+00
1.121724e+00
1.000002e+00
1.000017e+00
1.000121e+00
1.000818e+00
1.004292e+00
1.019370e+00
1.061905e+00
1.127363e+00
1.000017e+00
1.000122e+00
1.000823e+00
1.004317e+00
1.019474e+00
1.062177e+00
1.127653e+00
1.000017e+00
1.000121e+00
1.000818e+00
1.004292e+00
1.019370e+00
1.061905e+00
1.127363e+00
1.000015e+00
1.000110e+00
1.000743e+00
1.003911e+00
1.017785e+00
1.057541e+00
1.121724e+00
1.000000e+00
1.000002e+00
1.000014e+00
1.000103e+00
1.000704e+00
1.003742e+00
1.017222e+00
1.056293e+00
1.120781e+00
1.000000e+00
1.000002e+00
1.000015e+00
1.000114e+00
1.000775e+00
1.004106e+00
1.018757e+00
1.060565e+00
1.126385e+00
1.000015e+00
1.000114e+00
1.000780e+00
1.004130e+00
1.018857e+00
1.060832e+00
1.126676e+00
1.000015e+00
1.000114e+00
1.000775e+00
1.004106e+00
1.018757e+00
1.060565e+00
1.126385e+00
1.000014e+00
1.000103e+00
1.000704e+00
1.003742e+00
1.017222e+00
1.056293e+00
1.120781e+00
1.000000e+00
1.000001e+00
1.000012e+00
1.000090e+00
1.000628e+00
1.003377e+00
1.015804e+00
1.052571e+00
1.116415e+00
1.000000e+00
1.000001e+00
1.000013e+00
1.000100e+00
1.000691e+00
1.003704e+00
1.017206e+00
1.056547e+00
1.121774e+00
1.000013e+00
1.000101e+00
1.000695e+00
1.003726e+00
1.017298e+00
1.056796e+00
1.122055e+00
1.000013e+00
1.000100e+00
1.000691e+00
1.003704e+00
1.017206e+00
1.056547e+00
1.121774e+00
1.000012e+00
1.000090e+00
1.000628e+00
1.003377e+00
1.015804e+00
1.052571e+00
1.116415e+00
1.000000e+00
1.000000e+00
1.000000e+00
1.000000e+00
1.000000e+00
1.000000e+00
1.000000e+00
1.000000e+00
1.000000e+00
1.000000e+00
1.000000e+00
1.000000e+00
1.000000e+00
1.000000e+00
1.000000e+00
1.000000e+00
1.000000e+00
1.000000e+00
1.000000e+00
1.000000e+00
1.000000e+00
1.000000e+00
1.000000e+00
1.000000e+00
1.000000e+00
1.000000e+00
1.000000e+00
1.000000e+00
1.000000e+00
1.000000e+00
1.000000e+00
1.000000e+00
1.000000e+00
1.000000e+00
1.000000e+00
1.000000e+00
1.000000e+00
1.000000e+00
1.000000e+00
1.000000e+00
1.000000e+00
1.000000e+00
1.000000e+00
1.000000e+00
1.000000e+00
1.000000e+00
1.000000e+00
1.000000e+00
1.000000e+00
1.000000e+00
1.000000e+00
1.000000e+00
1.000000e+00
1.000000e+00
1.000000e+00
1.000000e+00
1.000000e+00
1.000000e+00
1.000000e+00
1.000000e+00
1.000000e+00
1.000000e+00
1.000000e+00
1.000000e+00
1.000000e+00
1.000000e+00
1.000000e+00
1.000000e+00
1.000000e+00
1.000000e+00
1.000000e+00
1.000000e+00
1.000000e+00
1.000000e+00
1.000000e+00
1.000000e+00
1.000000e+00
1.000000e+00
1.000000e+00
1.000000e+00
1.000000e+00
1.000000e+00
1.000000e+00
1.000000e+00
1.000000e+00
1.000000e+00
1.000000e+00
1.000000e+00
1.000000e+00
1.000000e+00
1.000000e+00
1.000000e+00
1.000000e+00
1.000000e+00
1.000000e+00
1.000000e+00
1.000000e+00
1.000000e+00
1.000000e+00
1.000000e+00
1.000000e+00
1.000000e+00
1.000000e+00
1.000000e+00
1.000000e+00
1.000000e+00
1.000000e+00
1.000000e+00
1.000000e+00
1.000000e+00
1.000000e+00
1.000000e+00
1.000000e+00
1.000000e+00
1.000000e+00
1.000000e+00
1.000000e+00
1.000000e+00
1.000000e+00
1.000000e+00
1.000000e+00
1.000000e+00
1.000000e+00
1.000000e+00
1.000000e+00
1.000000e+00
1.000000e+00
1.000000e+00
1.000000e+00
1.000000e+00
1.000000e+00
1.000000e+00
1.000000e+00
1.000000e+00
1.000000e+00
1.000000e+00
1.000000e+00
1.000000e+00
1.000000e+00
1.000000e+00
1.000000e+00
1.000000e+00
1.000000e+00
1.000000e+00
1.000000e+00
1.000000e+00
1.000000e+00
1.000000e+00
1.000000e+00
1.000000e+00
1.000000e+00
1.000000e+00
1.000000e+00
1.000000e+00
1.000000e+00
1.000000e+00
1.000000e+00
1.000000e+00
1.000000e+00
1.000000e+00
1.000000e+00
1.000000e+00
1.000000e+00
1.000000e+00
1.000000e+00
1.000000e+00
1.000000e+00
1.000000e+00
1.000000e+00
1.000000e+00
1.000000e+00
1.000000e+00
1.000000e+00
1.000000e+00
1.000000e+00
1.000000e+00
1.000000e+00
1.000000e+00
1.000000e+00
1.000000e+00
1.000000e+00
1.000000e+00
1.000000e+00
1.000000e+00
1.000000e+00
1.000000e+00
1.000000e+00
1.000000e+00
1.000000e+00
1.000000e+00
1.000000e+00
1.000000e+00
1.000000e+00
1.000000e+00
1.000000e+00
1.000000e+00
1.000000e+00
1.000000e+00
1.000000e+00
1.000000e+00
1.000000e+00
1.000000e+00
1.000000e+00
1.000000e+00
1.000000e+00
1.000000e+00
1.000000e+00
1.000000e+00
1.000000e+00
1.000000e+00
1.000000e+00
1.000000e+00
1.000000e+00
1.000000e+00
1.000000e+00
1.000000e+00
1.000000e+00
1.000000e+00
1.000000e+00
1.000000e+00
1.000000e+00
1.000000e+00
1.000000e+00
1.000000e+00
1.000000e+00
1.000000e+00
1.000000e+00
1.000000e+00
1.000000e+00
1.000000e+00
1.000000e+00
1.000000e+00
1.000000e+00
1.000000e+00
1.000000e+00
1.000000e+00
1.000000e+00
1.000000e+00
1.000000e+00
1.000000e+00
1.000000e+00
1.000000e+00
1.000000e+00
1.000000e+00
1.000000e+00
1.000000e+00
1.000000e+00
1.000000e+00
1.000000e+00
1.000000e+00
1.000000e+00
1.000000e+00
1.000000e+00
1.000000e+00
1.000000e+00
1.000000e+00
1.000000e+00
1.000000e+00
1.000000e+00
1.000000e+00
1.000000e+00
1.000000e+00
1.000000e+00
1.000000e+00
1.000000e+00
1.000000e+00
1.000000e+00
1.000000e+00
1.000000e+00
1.000000e+00
1.000000e+00
1.000000e+00
1.000000e+00
1.000000e+00
1.000000e+00
1.000000e+00
1.000000e+00
1.000000e+00
1.000000e+00
1.000000e+00
1.000000e+00
1.000000e+00
1.000000e+00
1.000000e+00
1.000000e+00
1.000000e+00
1.000000e+00
1.000000e+00
1.000000e+00
1.000000e+00
1.000000e+00
1.000000e+00
1.000000e+00
1.000000e+00
1.000000e+00
1.000000e+00
1.000000e+00
1.000000e+00
1.000000e+00
1.000000e+00
1.000000e+00
1.000000e+00
1.000000e+00
1.000000e+00
1.000000e+00
1.000000e+00
1.000000e+00
1.000000e+00
1.000000e+00
1.000000e+00
1.000000e+00
1.000000e+00
1.000000e+00
1.000000e+00
1.000000e+00
1.000000e+00
1.000000e+00
1.000000e+00
1.000000e+00
1.000000e+00
1.000000e+00
1.000000e+00
1.000000e+00
1.000000e+00
1.000000e+00
1.000000e+00
1.000000e+00
1.000000e+00
1.000000e+00
1.000000e+00
1.000000e+00
1.000000e+00
1.000000e+00
1.000000e+00
1.000000e+00
1.000000e+00
1.000000e+00
1.000000e+00
1.000000e+00
1.000000e+00
1.000000e+00
1.000000e+00
1.000000e+00
1.000000e+00
1.000000e+00
1.000000e+00
1.000000e+00
1.000000e+00
1.000000e+00
1.000000e+00
1.000000e+00
1.000000e+00
1.000000e+00
1.000000e+00
1.000000e+00
1.000000e+00
1.000000e+00
1.000000e+00
1.000000e+00
1.000000e+00
1.000000e+00
1.000000e+00
1.000000e+00
1.000000e+00
1.000000e+00
1.000000e+00
1.000000e+00
1.000000e+00
1.000000e+00
1.000000e+00
1.000000e+00
1.000000e+00
1.000000e+00
1.000000e+00
1.000000e+00
1.000000e+00
1.000000e+00
1.000000e+00
1.000000e+00
1.000000e+00
1.000000e+00
1.000000e+00
1.000000e+00
1.000000e+00
1.000000e+00
1.000000e+00
1.000000e+00
1.000000e+00
1.000000e+00
1.000000e+00
1.000000e+00
1.000000e+00
1.000000e+00
1.000000e+00
1.000000e+00
1.000000e+00
1.000000e+00
1.000000e+00
1.000000e+00
1.000000e+00
1.000000e+00
1.000000e+00
1.000000e+00
1.000000e+00
1.000000e+00
1.000000e+00
1.000000e+00
1.000000e+00
1.000000e+00
1.000000e+00
1.000000e+00
1.000000e+00
1.000000e+00
1.000000e+00
1.000000e+00
1.000000e+00
1.000000e+00
1.000000e+00
1.000000e+00
1.000000e+00
1.000000e+00
1.000000e+00
1.000000e+00
1.000000e+00
1.000000e+00
1.000000e+00
1.000000e+00
1.000000e+00
1.000000e+00
1.000000e+00
1.000000e+00
1.000000e+00
1.000000e+00
1.000000e+00
1.000000e+00
1.000000e+00
1.000000e+00
1.000000e+00
VECTORS Momentum double
9.482772e-15 3.823261e-15 -2.188134e-16
2.177655e-13 1.938015e-14 3.077003e-15
3.435051e-12 2.837441e-13 5.297296e-14
4.962571e-11 3.791398e-12 8.213334e-13
6.731645e-10 4.735577e-11 1.172728e-11
8.305403e-09 5.336084e-10 1.571386e-10
9.589889e-08 5.600030e-09 1.910128e-09
9.814060e-07 5.153039e-08 2.167847e-08
1.261653e-14 1.335943e-15 -7.694420e-17
2.435552e-13 2.158823e-14 1.417235e-15
3.835040e-12 3.167679e-13 2.560525e-14
5.536784e-11 4.228547e-12 3.964709e-13
7.505882e-10 5.279958e-11 5.669114e-12
9.253898e-09 5.945296e-10 7.590273e-11
1.067586e-07 6.234029e-09 9.219660e-10
1.091443e-06 5.730777e-08 1.045327e-08
2.451789e-13 2.172761e-14 -1.811977e-18
3.860001e-12 3.188167e-13 -2.169615e-20
5.573742e-11 4.257867e-12 3.976363e-27
7.555581e-10 5.314739e-11 6.001328e-25
9.314791e-09 5.984417e-10 -1.732119e-26
1.074558e-07 6.274770e-09 1.544849e-23
1.098507e-06 5.767917e-08 1.089647e-21
1.047829e-05 4.917546e-07 2.880404e-20
2.435685e-13 2.160093e-14 -1.512585e-15
3.835057e-12 3.167679e-13 -2.560783e-14
5.536784e-11 4.228547e-12 -3.964710e-13
7.505882e-10 5.279958e-11 -5.669114e-12
9.253898e-09 5.945296e-10 -7.590273e-11
1.067586e-07 6.234029e-09 -9.219660e-10
1.091443e-06 5.730777e-08 -1.045327e-08
1.041175e-05 4.886244e-07 -1.045740e-07
2.179615e-13 1.924081e-14 -3.122469e-15
3.435098e-12 2.836842e-13 -5.297409e-14
4.962572e-11 3.791399e-12 -8.213341e-13
6.731645e-10 4.735577e-11 -1.172728e-11
8.305403e-09 5.336084e-10 -1.571386e-10
9.589889e-08 5.600030e-09 -1.910128e-09
9.814060e-07 5.153039e-08 -2.167847e-08
9.373572e-06 4.398896e-07 -2.171422e-07
-5.865410e-15 1.142262e-13 -7.463868e-15
1.942449e-13 2.390673e-14 2.443025e-15
3.163309e-12 2.524198e-13 4.869515e-14
4.620544e-11 3.363592e-12 7.622197e-13
6.337740e-10 4.219509e-11 1.103559e-11
7.903483e-09 4.754244e-10 1.495520e-10
9.227024e-08 4.990623e-09 1.837475e-09
9.540979e-07 4.550416e-08 2.108630e-08
1.188597e-14 7.547221e-15 -4.200262e-15
2.213903e-13 1.881622e-14 1.148795e-15
3.530637e-12 2.797157e-13 2.353558e-14
5.155213e-11 3.751809e-12 3.687776e-13
7.066886e-10 4.704613e-11 5.333441e-12
8.806384e-09 5.296861e-10 7.224075e-11
1.027236e-07 5.555367e-09 8.869592e-10
1.061133e-06 5.060179e-08 1.016858e-08
2.229338e-13 1.889365e-14 -3.467354e-17
3.554510e-12 2.815478e-13 -2.956157e-18
5.189490e-11 3.777669e-12 -6.542792e-20
7.113682e-10 4.735684e-11 -3.999080e-24
8.864373e-09 5.331725e-10 -6.229579e-22
1.033949e-07 5.591662e-09 -6.708225e-20
1.068007e-06 5.092953e-08 -1.918570e-20
1.029884e-05 4.309647e-07 3.646259e-20
2.221851e-13 1.714448e-14 -1.524614e-15
3.530669e-12 2.794486e-13 -2.361950e-14
5.155214e-11 3.751804e-12 -3.687796e-13
7.066886e-10 4.704613e-11 -5.333441e-12
8.806384e-09 5.296861e-10 -7.224075e-11
1.027236e-07 5.555367e-09 -8.869592e-10
1.061133e-06 5.060179e-08 -1.016858e-08
1.023335e-05 4.282251e-07 -1.027919e-07
2.030467e-13 1.109604e-14 -3.085307e-15
3.163639e-12 2.489789e-13 -4.885181e-14
4.620552e-11 3.363460e-12 -7.622239e-13
6.337740e-10 4.219506e-11 -1.103559e-11
7.903483e-09 4.754244e-10 -1.495520e-10
9.227024e-08 4.990623e-09 -1.837475e-09
9.540979e-07 4.550416e-08 -2.108630e-08
9.212296e-06 3.855646e-07 -2.134189e-07
-3.230729e-13 -1.456413e-13 -3.608249e-13
-1.450084e-14 -7.944286e-15 -2.238928e-14
2.722596e-12 2.073144e-13 3.617752e-14
4.037426e-11 2.830721e-12 6.656803e-13
5.598695e-10 3.569686e-11 9.749289e-12
7.057072e-09 4.028629e-10 1.335243e-10
8.328891e-08 4.236789e-09 1.658195e-09
8.704176e-07 3.839318e-08 1.923637e-08
1.118326e-13 2.245128e-15 -2.018325e-13
1.786711e-13 1.489471e-14 -1.190052e-14
3.051991e-12 2.339538e-13 1.716384e-14
4.505048e-11 3.158563e-12 3.226628e-13
6.242799e-10 3.979993e-11 4.712148e-12
7.863255e-09 4.488128e-10 6.449882e-11
9.272441e-08 4.715775e-09 8.004166e-10
9.680600e-07 4.268787e-08 9.276432e-09
1.914576e-13 1.615472e-14 -2.916483e-15
3.073264e-12 2.358855e-13 -4.445230e-16
4.535052e-11 3.180322e-12 -6.244996e-18
6.284134e-10 4.006324e-11 -1.018778e-18
7.915032e-09 4.517649e-10 -6.681807e-19
9.333041e-08 4.746544e-09 -6.755126e-19
9.743316e-07 4.296381e-08 -1.116675e-18
9.498576e-06 3.618712e-07 7.152261e-19
2.336590e-13 2.195482e-14 -1.183421e-14
3.054807e-12 2.346234e-13 -2.311873e-14
4.505090e-11 3.158630e-12 -3.228995e-13
6.242799e-10 3.979993e-11 -4.712209e-12
7.863255e-09 4.488128e-10 -6.449883e-11
9.272441e-08 4.715775e-09 -8.004166e-10
9.680600e-07 4.268787e-08 -9.276432e-09
9.438176e-06 3.595781e-07 -9.476887e-08
3.563591e-13 3.855942e-14 -1.741862e-14
2.744498e-12 2.123866e-13 -4.679582e-14
4.037984e-11 2.831388e-12 -6.661208e-13
5.598698e-10 3.569689e-11 -9.749365e-12
7.057072e-09 4.028629e-10 -1.335243e-10
8.328891e-08 4.236789e-09 -1.658195e-09
8.704176e-07 3.839318e-08 -1.923637e-08
8.496515e-06 3.238289e-07 -1.967624e-07
3.156266e-13 -8.514202e-14 3.368540e-13
3.190365e-13 2.133071e-14 1.662738e-14
2.368092e-12 1.798908e-13 4.026466e-14
3.524631e-11 2.467004e-12 5.815627e-13
4.939508e-10 3.142203e-11 8.601447e-12
6.292270e-09 3.581008e-10 1.190501e-10
7.506000e-08 3.803410e-09 1.494066e-09
7.926747e-07 3.477491e-08 1.751792e-08
-8.694262e-14 -1.549326e-14 1.935726e-13
1.755035e-13 1.490924e-14 8.709523e-15
2.635407e-12 2.019332e-13 2.008548e-14
3.932415e-11 2.752400e-12 2.826781e-13
5.507755e-10 3.503172e-11 4.157077e-12
7.011043e-09 3.989400e-10 5.750666e-11
8.356269e-08 4.233323e-09 7.211858e-10
8.815875e-07 3.866376e-08 8.447652e-09
1.614447e-13 1.366304e-14 2.904584e-15
2.654283e-12 2.035341e-13 6.801676e-16
3.958515e-11 2.770458e-12 4.426034e-17
5.544214e-10 3.526312e-11 6.531156e-19
7.057206e-09 4.015632e-10 7.609967e-19
8.410876e-08 4.260939e-09 6.139235e-19
8.872982e-07 3.891360e-08 -2.943354e-19
8.743427e-06 3.307805e-07 -5.574726e-19
1.230954e-13 1.166267e-14 9.725090e-15
2.632662e-12 2.019511e-13 -1.494880e-14
3.932351e-11 2.752348e-12 -2.823344e-13
5.507755e-10 3.503171e-11 -4.157038e-12
7.011043e-09 3.989400e-10 -5.750665e-11
8.356269e-08 4.233323e-09 -7.211858e-10
8.815875e-07 3.866376e-08 -8.447652e-09
8.687835e-06 3.286854e-07 -8.720428e-08
-3.076470e-14 1.727297e-15 1.307942e-14
2.351447e-12 1.818753e-13 -3.169714e-14
3.524152e-11 2.466775e-12 -5.809813e-13
4.939504e-10 3.142204e-11 -8.601413e-12
6.292270e-09 3.581008e-10 -1.190501e-10
7.506000e-08 3.803410e-09 -1.494066e-09
7.926747e-07 3.477491e-08 -1.751792e-08
7.821136e-06 2.960199e-07 -1.810591e-07
1.707430e-14 1.120029e-13 7.509563e-15
1.264968e-13 1.456915e-14 2.387425e-15
2.035611e-12 1.530362e-13 3.097319e-14
3.069931e-11 2.076076e-12 5.064858e-13
4.348295e-10 2.656694e-11 7.566948e-12
5.597594e-09 3.031380e-10 1.058911e-10
6.748772e-08 3.222156e-09 1.342892e-09
5.184299e-15 9.725446e-15 4.283559e-15
1.371669e-13 1.105000e-14 1.226702e-15
2.271713e-12 1.693808e-13 1.508492e-14
3.425130e-11 2.316192e-12 2.454019e-13
4.848490e-10 2.961722e-11 3.656812e-12
6.236954e-09 3.376821e-10 5.114918e-11
7.513173e-08 3.585970e-09 6.482046e-10
1.379415e-13 1.106349e-14 9.315422e-17
2.287292e-12 1.702901e-13 5.513345e-18
3.447874e-11 2.330673e-12 3.096628e-19
4.880585e-10 2.981319e-11 -2.844349e-27
6.278016e-09 3.399014e-10 4.360647e-24
7.562264e-08 3.609330e-09 9.272201e-23
8.061152e-07 3.271122e-08 1.957870e-21
8.028945e-06 2.759172e-07 1.582334e-20
1.364830e-13 9.254563e-15 -4.058053e-16
2.271623e-12 1.689656e-13 -1.498688e-14
3.425130e-11 2.316165e-12 -2.453401e-13
4.848490e-10 2.961722e-11 -3.656812e-12
6.236954e-09 3.376821e-10 -5.114917e-11
7.513173e-08 3.585970e-09 -6.482046e-10
8.009279e-07 3.250165e-08 -7.673659e-09
7.977908e-06 2.741759e-07 -8.003620e-08
1.198077e-13 3.467900e-15 -9.907140e-16
2.034913e-12 1.500106e-13 -3.079643e-14
3.069922e-11 2.075867e-12 -5.063665e-13
4.348294e-10 2.656691e-11 -7.566947e-12
5.597594e-09 3.031380e-10 -1.058911e-10
6.748772e-08 3.222156e-09 -1.342892e-09
7.201613e-07 2.923771e-08 -1.591318e-08
7.182175e-06 2.469945e-07 -1.661803e-07
5.364480e-15 3.588432e-15 1.380528e-16
9.708105e-14 7.754074e-15 1.376128e-15
1.637525e-12 1.128087e-13 2.510214e-14
2.497715e-11 1.546036e-12 4.121362e-13
3.577870e-10 1.977627e-11 6.219145e-12
4.656625e-09 2.236830e-10 8.799100e-11
5.679048e-08 2.357283e-09 1.128071e-09
4.476464e-15 5.552137e-16 8.063692e-17
1.085559e-13 8.294199e-15 6.752658e-16