# vtk DataFile Version 2.0
Simplicial Mesh Example
ASCII
DATASET UNSTRUCTURED_GRID
POINTS 1302 double
0.000000e+00 1.000000e+00 5.000000e-01
-5.551115e-17 1.000000e+00 3.000000e-01
3.302130e-02 6.666667e-01 5.000000e-01
3.302130e-02 6.666667e-01 3.000000e-01
-2.000000e-01 1.000000e+00 5.000000e-01
-2.000000e-01 1.000000e+00 3.000000e-01
-1.691801e-01 6.666667e-01 5.000000e-01
-1.691801e-01 6.666667e-01 3.000000e-01
-4.000000e-01 1.000000e+00 5.000000e-01
-4.000000e-01 1.000000e+00 3.000000e-01
-3.713816e-01 6.666667e-01 5.000000e-01
-3.713816e-01 6.666667e-01 3.000000e-01
-6.000000e-01 1.000000e+00 5.000000e-01
-6.000000e-01 1.000000e+00 3.000000e-01
-5.735829e-01 6.666667e-01 5.000000e-01
-5.735829e-01 6.666667e-01 3.000000e-01
-8.000000e-01 1.000000e+00 5.000000e-01
-8.000000e-01 1.000000e+00 3.000000e-01
-7.757844e-01 6.666667e-01 5.000000e-01
-7.757844e-01 6.666667e-01 3.000000e-01
-1.000000e+00 1.000000e+00 5.000000e-01
-1.000000e+00 1.000000e+00 3.000000e-01
-9.779858e-01 6.666667e-01 5.000000e-01
-9.779858e-01 6.666667e-01 3.000000e-01
-1.200000e+00 1.000000e+00 5.000000e-01
-1.200000e+00 1.000000e+00 3.000000e-01
-1.180187e+00 6.666667e-01 5.000000e-01
-1.180187e+00 6.666667e-01 3.000000e-01
-2.000000e-01 1.000000e+00 1.000000e-01
-1.691801e-01 6.666667e-01 1.000000e-01
-4.000000e-01 1.000000e+00 1.000000e-01
-3.713816e-01 6.666667e-01 1.000000e-01
-6.000000e-01 1.000000e+00 1.000000e-01
-5.735829e-01 6.666667e-01 1.000000e-01
-8.000000e-01 1.000000e+00 1.000000e-01
-7.757844e-01 6.666667e-01 1.000000e-01
-1.000000e+00 1.000000e+00 1.000000e-01
-9.779858e-01 6.666667e-01 1.000000e-01
-1.200000e+00 1.000000e+00 1.000000e-01
-1.180187e+00 6.666667e-01 1.000000e-01
-2.000000e-01 1.000000e+00 -1.000000e-01
-1.691801e-01 6.666667e-01 -1.000000e-01
-4.000000e-01 1.000000e+00 -1.000000e-01
-3.713816e-01 6.666667e-01 -1.000000e-01
-6.000000e-01 1.000000e+00 -1.000000e-01
-5.735829e-01 6.666667e-01 -1.000000e-01
-8.000000e-01 1.000000e+00 -1.000000e-01
-7.757844e-01 6.666667e-01 -1.000000e-01
-1.000000e+00 1.000000e+00 -1.000000e-01
-9.779858e-01 6.666667e-01 -1.000000e-01
-1.200000e+00 1.000000e+00 -1.000000e-01
-1.180187e+00 6.666667e-01 -1.000000e-01
-1.400000e+00 1.000000e+00 -1.000000e-01
-1.382389e+00 6.666667e-01 -1.000000e-01
-2.000000e-01 1.000000e+00 -3.000000e-01
-1.691801e-01 6.666667e-01 -3.000000e-01
-4.000000e-01 1.000000e+00 -3.000000e-01
-3.713816e-01 6.666667e-01 -3.000000e-01
-6.000000e-01 1.000000e+00 -3.000000e-01
-5.735829e-01 6.666667e-01 -3.000000e-01
-8.000000e-01 1.000000e+00 -3.000000e-01
-7.757844e-01 6.666667e-01 -3.000000e-01
-1.000000e+00 1.000000e+00 -3.000000e-01
-9.779858e-01 6.666667e-01 -3.000000e-01
-1.200000e+00 1.000000e+00 -3.000000e-01
-1.180187e+00 6.666667e-01 -3.000000e-01
-1.400000e+00 1.000000e+00 -3.000000e-01
-1.382389e+00 6.666667e-01 -3.000000e-01
-2.000000e-01 1.000000e+00 -5.000000e-01
-1.691801e-01 6.666667e-01 -5.000000e-01
-4.000000e-01 1.000000e+00 -5.000000e-01
-3.713816e-01 6.666667e-01 -5.000000e-01
-6.000000e-01 1.000000e+00 -5.000000e-01
-5.735829e-01 6.666667e-01 -5.000000e-01
-8.000000e-01 1.000000e+00 -5.000000e-01
-7.757844e-01 6.666667e-01 -5.000000e-01
-1.000000e+00 1.000000e+00 -5.000000e-01
-9.779858e-01 6.666667e-01 -5.000000e-01
-1.200000e+00 1.000000e+00 -5.000000e-01
-1.180187e+00 6.666667e-01 -5.000000e-01
-1.400000e+00 1.000000e+00 -5.000000e-01
-1.382389e+00 6.666667e-01 -5.000000e-01
6.604260e-02 3.333333e-01 5.000000e-01
6.604260e-02 3.333333e-01 3.000000e-01
-1.383602e-01 3.333333e-01 5.000000e-01
-1.383602e-01 3.333333e-01 3.000000e-01
-3.427631e-01 3.333333e-01 5.000000e-01
-3.427631e-01 3.333333e-01 3.000000e-01
-5.471659e-01 3.333333e-01 5.000000e-01
-5.471659e-01 3.333333e-01 3.000000e-01
-7.515687e-01 3.333333e-01 5.000000e-01
-7.515687e-01 3.333333e-01 3.000000e-01
-9.559716e-01 3.333333e-01 5.000000e-01
-9.559716e-01 3.333333e-01 3.000000e-01
-1.160374e+00 3.333333e-01 5.000000e-01
-1.160374e+00 3.333333e-01 3.000000e-01
-1.383602e-01 3.333333e-01 1.000000e-01
-3.427631e-01 3.333333e-01 1.000000e-01
-5.471659e-01 3.333333e-01 1.000000e-01
-7.515687e-01 3.333333e-01 1.000000e-01
-9.559716e-01 3.333333e-01 1.000000e-01
-1.160374e+00 3.333333e-01 1.000000e-01
-1.383602e-01 3.333333e-01 -1.000000e-01
-3.427631e-01 3.333333e-01 -1.000000e-01
-5.471659e-01 3.333333e-01 -1.000000e-01
-7.515687e-01 3.333333e-01 -1.000000e-01
-9.559716e-01 3.333333e-01 -1.000000e-01
-1.160374e+00 3.333333e-01 -1.000000e-01
-1.364777e+00 3.333333e-01 -1.000000e-01
-1.383602e-01 3.333333e-01 -3.000000e-01
-3.427631e-01 3.333333e-01 -3.000000e-01
-5.471659e-01 3.333333e-01 -3.000000e-01
-7.515687e-01 3.333333e-01 -3.000000e-01
-9.559716e-01 3.333333e-01 -3.000000e-01
-1.160374e+00 3.333333e-01 -3.000000e-01
-1.364777e+00 3.333333e-01 -3.000000e-01
-1.383602e-01 3.333333e-01 -5.000000e-01
-3.427631e-01 3.333333e-01 -5.000000e-01
-5.471659e-01 3.333333e-01 -5.000000e-01
-7.515687e-01 3.333333e-01 -5.000000e-01
-9.559716e-01 3.333333e-01 -5.000000e-01
-1.160374e+00 3.333333e-01 -5.000000e-01
-1.364777e+00 3.333333e-01 -5.000000e-01
9.906390e-02 -2.775558e-17 5.000000e-01
9.906390e-02 -5.551115e-17 3.000000e-01
-1.075404e-01 0.000000e+00 5.000000e-01
-1.075404e-01 0.000000e+00 3.000000e-01
-3.141446e-01 0.000000e+00 5.000000e-01
-3.141446e-01 0.000000e+00 3.000000e-01
-5.207489e-01 0.000000e+00 5.000000e-01
-5.207489e-01 0.000000e+00 3.000000e-01
-7.273532e-01 -5.551115e-17 5.000000e-01
-7.273532e-01 0.000000e+00 3.000000e-01
-9.339574e-01 0.000000e+00 5.000000e-01
-9.339574e-01 0.000000e+00 3.000000e-01
-1.140562e+00 0.000000e+00 5.000000e-01
-1.140562e+00 0.000000e+00 3.000000e-01
-1.075404e-01 -2.775558e-17 1.000000e-01
-3.141446e-01 0.000000e+00 1.000000e-01
-5.207489e-01 -2.775558e-17 1.000000e-01
-7.273532e-01 0.000000e+00 1.000000e-01
-9.339574e-01 0.000000e+00 1.000000e-01
-1.140562e+00 -2.775558e-17 1.000000e-01
-1.075404e-01 0.000000e+00 -1.000000e-01
-3.141446e-01 0.000000e+00 -1.000000e-01
-5.207489e-01 -2.775558e-17 -1.000000e-01
-7.273532e-01 0.000000e+00 -1.000000e-01
-9.339574e-01 0.000000e+00 -1.000000e-01
-1.140562e+00 -2.775558e-17 -1.000000e-01
-1.347166e+00 0.000000e+00 -1.000000e-01
-1.075404e-01 -2.775558e-17 -3.000000e-01
-3.141446e-01 0.000000e+00 -3.000000e-01
-5.207489e-01 0.000000e+00 -3.000000e-01
-7.273532e-01 -2.775558e-17 -3.000000e-01
-9.339574e-01 -2.775558e-17 -3.000000e-01
-1.140562e+00 -2.775558e-17 -3.000000e-01
-1.347166e+00 -5.551115e-17 -3.000000e-01
-1.075404e-01 0.000000e+00 -5.000000e-01
-3.141446e-01 0.000000e+00 -5.000000e-01
-5.207489e-01 0.000000e+00 -5.000000e-01
-7.273532e-01 0.000000e+00 -5.000000e-01
-9.339574e-01 0.000000e+00 -5.000000e-01
-1.140562e+00 0.000000e+00 -5.000000e-01
-1.347166e+00 -5.551115e-17 -5.000000e-01
1.320852e-01 -3.333333e-01 5.000000e-01
1.320852e-01 -3.333333e-01 3.000000e-01
-7.672048e-02 -3.333333e-01 5.000000e-01
-7.672048e-02 -3.333333e-01 3.000000e-01
-2.855262e-01 -3.333333e-01 5.000000e-01
-2.855262e-01 -3.333333e-01 3.000000e-01
-4.943318e-01 -3.333333e-01 5.000000e-01
-4.943318e-01 -3.333333e-01 3.000000e-01
-7.031375e-01 -3.333333e-01 5.000000e-01
-7.031375e-01 -3.333333e-01 3.000000e-01
-9.119432e-01 -3.333333e-01 5.000000e-01
-9.119432e-01 -3.333333e-01 3.000000e-01
-7.672048e-02 -3.333333e-01 1.000000e-01
-2.855262e-01 -3.333333e-01 1.000000e-01
-4.943318e-01 -3.333333e-01 1.000000e-01
-7.031375e-01 -3.333333e-01 1.000000e-01
-9.119432e-01 -3.333333e-01 1.000000e-01
-7.672048e-02 -3.333333e-01 -1.000000e-01
-2.855262e-01 -3.333333e-01 -1.000000e-01
-4.943318e-01 -3.333333e-01 -1.000000e-01
-7.031375e-01 -3.333333e-01 -1.000000e-01
-9.119432e-01 -3.333333e-01 -1.000000e-01
-1.120749e+00 -3.333333e-01 -1.000000e-01
-1.329555e+00 -3.333333e-01 -1.000000e-01
-7.672048e-02 -3.333333e-01 -3.000000e-01
-2.855262e-01 -3.333333e-01 -3.000000e-01
-4.943318e-01 -3.333333e-01 -3.000000e-01
-7.031375e-01 -3.333333e-01 -3.000000e-01
-9.119432e-01 -3.333333e-01 -3.000000e-01
-1.120749e+00 -3.333333e-01 -3.000000e-01
-1.329555e+00 -3.333333e-01 -3.000000e-01
-7.672048e-02 -3.333333e-01 -5.000000e-01
-2.855262e-01 -3.333333e-01 -5.000000e-01
-4.943318e-01 -3.333333e-01 -5.000000e-01
-7.031375e-01 -3.333333e-01 -5.000000e-01
-9.119432e-01 -3.333333e-01 -5.000000e-01
-1.120749e+00 -3.333333e-01 -5.000000e-01
-1.329555e+00 -3.333333e-01 -5.000000e-01
1.651065e-01 -6.666667e-01 5.000000e-01
1.651065e-01 -6.666667e-01 3.000000e-01
-4.590059e-02 -6.666667e-01 5.000000e-01
-4.590059e-02 -6.666667e-01 3.000000e-01
-2.569077e-01 -6.666667e-01 5.000000e-01
-2.569077e-01 -6.666667e-01 3.000000e-01
-4.679148e-01 -6.666667e-01 5.000000e-01
-4.679148e-01 -6.666667e-01 3.000000e-01
-6.789219e-01 -6.666667e-01 5.000000e-01
-6.789219e-01 -6.666667e-01 3.000000e-01
-8.899290e-01 -6.666667e-01 5.000000e-01
-8.899290e-01 -6.666667e-01 3.000000e-01
-4.590059e-02 -6.666667e-01 1.000000e-01
-2.569077e-01 -6.666667e-01 1.000000e-01
-4.679148e-01 -6.666667e-01 1.000000e-01
-6.789219e-01 -6.666667e-01 1.000000e-01
-8.899290e-01 -6.666667e-01 1.000000e-01
-4.590059e-02 -6.666667e-01 -1.000000e-01
-2.569077e-01 -6.666667e-01 -1.000000e-01
-4.679148e-01 -6.666667e-01 -1.000000e-01
-6.789219e-01 -6.666667e-01 -1.000000e-01
-8.899290e-01 -6.666667e-01 -1.000000e-01
-1.100936e+00 -6.666667e-01 -1.000000e-01
-1.311943e+00 -6.666667e-01 -1.000000e-01
-4.590059e-02 -6.666667e-01 -3.000000e-01
-2.569077e-01 -6.666667e-01 -3.000000e-01
-4.679148e-01 -6.666667e-01 -3.000000e-01
-6.789219e-01 -6.666667e-01 -3.000000e-01
-8.899290e-01 -6.666667e-01 -3.000000e-01
-1.100936e+00 -6.666667e-01 -3.000000e-01
-1.311943e+00 -6.666667e-01 -3.000000e-01
-4.590059e-02 -6.666667e-01 -5.000000e-01
-2.569077e-01 -6.666667e-01 -5.000000e-01
-4.679148e-01 -6.666667e-01 -5.000000e-01
-6.789219e-01 -6.666667e-01 -5.000000e-01
-8.899290e-01 -6.666667e-01 -5.000000e-01
-1.100936e+00 -6.666667e-01 -5.000000e-01
-1.311943e+00 -6.666667e-01 -5.000000e-01
1.981278e-01 -1.000000e+00 5.000000e-01
1.981278e-01 -1.000000e+00 3.000000e-01
[...]
CELL_DATA 900
SCALARS Density double 1
LOOKUP_TABLE default
1.000000e+00
1.000000e+00
1.000000e+00
1.000000e+00
1.000000e+00
1.000000e+00
1.000000e+00
1.000001e+00
1.000000e+00
1.000000e+00
1.000000e+00
1.000000e+00
1.000000e+00
1.000000e+00
1.000000e+00
1.000001e+00
1.000000e+00
1.000000e+00
1.000000e+00
1.000000e+00
1.000000e+00
1.000000e+00
1.000001e+00
1.000006e+00
1.000000e+00
1.000000e+00
1.000000e+00
1.000000e+00
1.000000e+00
1.000000e+00
1.000001e+00
1.000006e+00
1.000000e+00
1.000000e+00
1.000000e+00
1.000000e+00
1.000000e+00
1.000000e+00
1.000001e+00
1.000005e+00
1.000000e+00
1.000000e+00
1.000000e+00
1.000000e+00
1.000000e+00
1.000000e+00
1.000000e+00
1.000001e+00
1.000000e+00
1.000000e+00
1.000000e+00
1.000000e+00
1.000000e+00
1.000000e+00
1.000000e+00
1.000001e+00
1.000000e+00
1.000000e+00
1.000000e+00
1.000000e+00
1.000000e+00
1.000000e+00
1.000001e+00
1.000006e+00
1.000000e+00
1.000000e+00
1.000000e+00
1.000000e+00
1.000000e+00
1.000000e+00
1.000001e+00
1.000006e+00
1.000000e+00
1.000000e+00
1.000000e+00
1.000000e+00
1.000000e+00
1.000000e+00
1.000001e+00
1.000005e+00
1.000000e+00
1.000000e+00
1.000000e+00
1.000000e+00
1.000000e+00
1.000000e+00
1.000000e+00
1.000001e+00
1.000000e+00
1.000000e+00
1.000000e+00
1.000000e+00
1.000000e+00
1.000000e+00
1.000000e+00
1.000001e+00
1.000000e+00
1.000000e+00
1.000000e+00
1.000000e+00
1.000000e+00
1.000000e+00
1.000001e+00
1.000005e+00
1.000000e+00
1.000000e+00
1.000000e+00
1.000000e+00
1.000000e+00
1.000000e+00
1.000001e+00
1.000005e+00
1.000000e+00
1.000000e+00
1.000000e+00
1.000000e+00
1.000000e+00
1.000000e+00
1.000001e+00
1.000005e+00
1.000000e+00
1.000000e+00
1.000000e+00
1.000000e+00
1.000000e+00
1.000000e+00
1.000000e+00
1.000001e+00
1.000000e+00
1.000000e+00
1.000000e+00
1.000000e+00
1.000000e+00
1.000000e+00
1.000000e+00
1.000001e+00
1.000000e+00
1.000000e+00
1.000000e+00
1.000000e+00
1.000000e+00
1.000000e+00
1.000001e+00
1.000005e+00
1.000000e+00
1.000000e+00
1.000000e+00
1.000000e+00
1.000000e+00
1.000000e+00
1.000001e+00
1.000005e+00
1.000000e+00
1.000000e+00
1.000000e+00
1.000000e+00
1.000000e+00
1.000000e+00
1.000001e+00
1.000004e+00
1.000000e+00
1.000000e+00
1.000000e+00
1.000000e+00
1.000000e+00
1.000000e+00
1.000000e+00
1.000000e+00
1.000000e+00
1.000000e+00
1.000000e+00
1.000000e+00
1.000000e+00
1.000000e+00
1.000000e+00
1.000000e+00
1.000000e+00
1.000000e+00
1.000000e+00
1.000000e+00
1.000001e+00
1.000005e+00
1.000000e+00
1.000000e+00
1.000000e+00
1.000000e+00
1.000000e+00
1.000000e+00
1.000001e+00
1.000005e+00
1.000000e+00
1.000000e+00
1.000000e+00
1.000000e+00
1.000000e+00
1.000000e+00
1.000000e+00
1.000004e+00
1.000000e+00
1.000000e+00
1.000000e+00
1.000000e+00
1.000000e+00
1.000000e+00
1.000000e+00
1.000000e+00
1.000000e+00
1.000000e+00
1.000000e+00
1.000000e+00
1.000000e+00
1.000000e+00
1.000000e+00
1.000000e+00
1.000000e+00
1.000000e+00
1.000000e+00
1.000000e+00
1.000000e+00
1.000004e+00
1.000000e+00
1.000000e+00
1.000000e+00
1.000000e+00
1.000000e+00
1.000000e+00
1.000000e+00
1.000004e+00
1.000000e+00
1.000000e+00
1.000000e+00
1.000000e+00
1.000000e+00
1.000000e+00
1.000000e+00
1.000003e+00
1.000005e+00
1.000040e+00
1.000251e+00
1.001445e+00
1.006584e+00
1.025191e+00
1.070873e+00
1.127003e+00
1.000006e+00
1.000044e+00
1.000280e+00
1.001606e+00
1.007285e+00
1.027616e+00
1.076538e+00
1.132966e+00
1.000045e+00
1.000282e+00
1.001618e+00
1.007336e+00
1.027789e+00
1.076914e+00
1.133259e+00
1.000044e+00
1.000280e+00
1.001606e+00
1.007285e+00
1.027616e+00
1.076538e+00
1.132966e+00
1.000040e+00
1.000251e+00
1.001445e+00
1.006584e+00
1.025191e+00
1.070873e+00
1.127003e+00
1.000005e+00
1.000040e+00
1.000253e+00
1.001473e+00
1.006763e+00
1.026071e+00
1.073451e+00
1.130560e+00
1.000006e+00
1.000044e+00
1.000283e+00
1.001637e+00
1.007485e+00
1.028592e+00
1.079358e+00
1.136779e+00
1.000045e+00
1.000285e+00
1.001650e+00
1.007538e+00
1.028772e+00
1.079752e+00
1.137084e+00
1.000044e+00
1.000283e+00
1.001637e+00
1.007485e+00
1.028592e+00
1.079358e+00
1.136779e+00
1.000040e+00
1.000253e+00
1.001473e+00
1.006763e+00
1.026071e+00
1.073451e+00
1.130560e+00
1.000005e+00
1.000037e+00
1.000239e+00
1.001405e+00
1.006516e+00
1.025428e+00
1.072362e+00
1.130119e+00
1.000005e+00
1.000041e+00
1.000266e+00
1.001562e+00
1.007212e+00
1.027889e+00
1.078195e+00
1.136341e+00
1.000042e+00
1.000269e+00
1.001573e+00
1.007263e+00
1.028065e+00
1.078585e+00
1.136650e+00
1.000041e+00
1.000266e+00
1.001562e+00
1.007212e+00
1.027889e+00
1.078195e+00
1.136341e+00
1.000037e+00
1.000239e+00
1.001405e+00
1.006516e+00
1.025428e+00
1.072362e+00
1.130119e+00
1.000004e+00
1.000034e+00
1.000225e+00
1.001335e+00
1.006257e+00
1.024715e+00
1.071065e+00
1.129429e+00
1.000005e+00
1.000039e+00
1.000251e+00
1.001485e+00
1.006925e+00
1.027108e+00
1.076801e+00
1.135637e+00
1.000039e+00
1.000252e+00
1.001496e+00
1.006974e+00
1.027280e+00
1.077186e+00
1.135949e+00
1.000039e+00
1.000251e+00
1.001485e+00
1.006925e+00
1.027108e+00
1.076801e+00
1.135637e+00
1.000034e+00
1.000225e+00
1.001335e+00
1.006257e+00
1.024715e+00
1.071065e+00
1.129429e+00
1.000000e+00
1.000004e+00
1.000032e+00
1.000210e+00
1.001265e+00
1.005985e+00
1.023933e+00
1.069557e+00
1.128482e+00
1.000001e+00
1.000005e+00
1.000036e+00
1.000235e+00
1.001406e+00
1.006624e+00
1.026249e+00
1.075178e+00
1.134658e+00
1.000036e+00
1.000236e+00
1.001416e+00
1.006670e+00
1.026416e+00
1.075556e+00
1.134972e+00
1.000036e+00
1.000235e+00
1.001406e+00
1.006624e+00
1.026249e+00
1.075178e+00
1.134658e+00
1.000032e+00
1.000210e+00
1.001265e+00
1.005985e+00
1.023933e+00
1.069557e+00
1.128482e+00
1.000000e+00
1.000003e+00
1.000028e+00
1.000184e+00
1.001120e+00
1.005367e+00
1.021845e+00
1.064743e+00
1.123665e+00
1.000000e+00
1.000004e+00
1.000031e+00
1.000205e+00
1.001245e+00
1.005937e+00
1.023951e+00
1.069959e+00
1.129564e+00
1.000031e+00
1.000206e+00
1.001254e+00
1.005979e+00
1.024102e+00
1.070311e+00
1.129870e+00
1.000031e+00
1.000205e+00
1.001245e+00
1.005937e+00
1.023951e+00
1.069959e+00
1.129564e+00
1.000028e+00
1.000184e+00
1.001120e+00
1.005367e+00
1.021845e+00
1.064743e+00
1.123665e+00
1.000000e+00
1.000000e+00
1.000000e+00
1.000000e+00
1.000000e+00
1.000000e+00
1.000000e+00
1.000000e+00
1.000000e+00
1.000000e+00
1.000000e+00
1.000000e+00
1.000000e+00
1.000000e+00
1.000000e+00
1.000000e+00
1.000000e+00
1.000000e+00
1.000000e+00
1.000000e+00
1.000000e+00
1.000000e+00
1.000000e+00
1.000000e+00
1.000000e+00
1.000000e+00
1.000000e+00
1.000000e+00
1.000000e+00
1.000000e+00
1.000000e+00
1.000000e+00
1.000000e+00
1.000000e+00
1.000000e+00
1.000000e+00
1.000000e+00
1.000000e+00
1.000000e+00
1.000000e+00
1.000000e+00
1.000000e+00
1.000000e+00
1.000000e+00
1.000000e+00
1.000000e+00
1.000000e+00
1.000000e+00
1.000000e+00
1.000000e+00
1.000000e+00
1.000000e+00
1.000000e+00
1.000000e+00
1.000000e+00
1.000000e+00
1.000000e+00
1.000000e+00
1.000000e+00
1.000000e+00
1.000000e+00
1.000000e+00
1.000000e+00
1.000000e+00
1.000000e+00
1.000000e+00
1.000000e+00
1.000000e+00
1.000000e+00
1.000000e+00
1.000000e+00
1.000000e+00
1.000000e+00
1.000000e+00
1.000000e+00
1.000000e+00
1.000000e+00
1.000000e+00
1.000000e+00
1.000000e+00
1.000000e+00
1.000000e+00
1.000000e+00
1.000000e+00
1.000000e+00
1.000000e+00
1.000000e+00
1.000000e+00
1.000000e+00
1.000000e+00
1.000000e+00
1.000000e+00
1.000000e+00
1.000000e+00
1.000000e+00
1.000000e+00
1.000000e+00
1.000000e+00
1.000000e+00
1.000000e+00
1.000000e+00
1.000000e+00
1.000000e+00
1.000000e+00
1.000000e+00
1.000000e+00
1.000000e+00
1.000000e+00
1.000000e+00
1.000000e+00
1.000000e+00
1.000000e+00
1.000000e+00
1.000000e+00
1.000000e+00
1.000000e+00
1.000000e+00
1.000000e+00
1.000000e+00
1.000000e+00
1.000000e+00
1.000000e+00
1.000000e+00
1.000000e+00
1.000000e+00
1.000000e+00
1.000000e+00
1.000000e+00
1.000000e+00
1.000000e+00
1.000000e+00
1.000000e+00
1.000000e+00
1.000000e+00
1.000000e+00
1.000000e+00
1.000000e+00
1.000000e+00
1.000000e+00
1.000000e+00
1.000000e+00
1.000000e+00
1.000000e+00
1.000000e+00
1.000000e+00
1.000000e+00
1.000000e+00
1.000000e+00
1.000000e+00
1.000000e+00
1.000000e+00
1.000000e+00
1.000000e+00
1.000000e+00
1.000000e+00
1.000000e+00
1.000000e+00
1.000000e+00
1.000000e+00
1.000000e+00
1.000000e+00
1.000000e+00
1.000000e+00
1.000000e+00
1.000000e+00
1.000000e+00
1.000000e+00
1.000000e+00
1.000000e+00
1.000000e+00
1.000000e+00
1.000000e+00
1.000000e+00
1.000000e+00
1.000000e+00
1.000000e+00
1.000000e+00
1.000000e+00
1.000000e+00
1.000000e+00
1.000000e+00
1.000000e+00
1.000000e+00
1.000000e+00
1.000000e+00
1.000000e+00
1.000000e+00
1.000000e+00
1.000000e+00
1.000000e+00
1.000000e+00
1.000000e+00
1.000000e+00
1.000000e+00
1.000000e+00
1.000000e+00
1.000000e+00
1.000000e+00
1.000000e+00
1.000000e+00
1.000000e+00
1.000000e+00
1.000000e+00
1.000000e+00
1.000000e+00
1.000000e+00
1.000000e+00
1.000000e+00
1.000000e+00
1.000000e+00
1.000000e+00
1.000000e+00
1.000000e+00
1.000000e+00
1.000000e+00
1.000000e+00
1.000000e+00
1.000000e+00
1.000000e+00
1.000000e+00
1.000000e+00
1.000000e+00
1.000000e+00
1.000000e+00
1.000000e+00
1.000000e+00
1.000000e+00
1.000000e+00
1.000000e+00
1.000000e+00
1.000000e+00
1.000000e+00
1.000000e+00
1.000000e+00
1.000000e+00
1.000000e+00
1.000000e+00
1.000000e+00
1.000000e+00
1.000000e+00
1.000000e+00
1.000000e+00
1.000000e+00
1.000000e+00
1.000000e+00
1.000000e+00
1.000000e+00
1.000000e+00
1.000000e+00
1.000000e+00
1.000000e+00
1.000000e+00
1.000000e+00
1.000000e+00
1.000000e+00
1.000000e+00
1.000000e+00
1.000000e+00
1.000000e+00
1.000000e+00
1.000000e+00
1.000000e+00
1.000000e+00
1.000000e+00
1.000000e+00
1.000000e+00
1.000000e+00
1.000000e+00
1.000000e+00
1.000000e+00
1.000000e+00
1.000000e+00
1.000000e+00
1.000000e+00
1.000000e+00
1.000000e+00
1.000000e+00
1.000000e+00
1.000000e+00
1.000000e+00
1.000000e+00
1.000000e+00
1.000000e+00
1.000000e+00
1.000000e+00
1.000000e+00
1.000000e+00
1.000000e+00
1.000000e+00
1.000000e+00
1.000000e+00
1.000000e+00
1.000000e+00
1.000000e+00
1.000000e+00
1.000000e+00
1.000000e+00
1.000000e+00
1.000000e+00
1.000000e+00
1.000000e+00
1.000000e+00
1.000000e+00
1.000000e+00
1.000000e+00
1.000000e+00
1.000000e+00
1.000000e+00
1.000000e+00
1.000000e+00
1.000000e+00
1.000000e+00
1.000000e+00
1.000000e+00
1.000000e+00
1.000000e+00
1.000000e+00
1.000000e+00
1.000000e+00
1.000000e+00
1.000000e+00
1.000000e+00
1.000000e+00
1.000000e+00
1.000000e+00
1.000000e+00
1.000000e+00
1.000000e+00
1.000000e+00
1.000000e+00
1.000000e+00
1.000000e+00
1.000000e+00
1.000000e+00
1.000000e+00
1.000000e+00
1.000000e+00
1.000000e+00
1.000000e+00
1.000000e+00
1.000000e+00
1.000000e+00
1.000000e+00
1.000000e+00
1.000000e+00
1.000000e+00
1.000000e+00
1.000000e+00
1.000000e+00
1.000000e+00
1.000000e+00
1.000000e+00
1.000000e+00
1.000000e+00
1.000000e+00
1.000000e+00
1.000000e+00
1.000000e+00
1.000000e+00
1.000000e+00
1.000000e+00
1.000000e+00
1.000000e+00
1.000000e+00
1.000000e+00
1.000000e+00
1.000000e+00
1.000000e+00
1.000000e+00
1.000000e+00
1.000000e+00
1.000000e+00
1.000000e+00
1.000000e+00
1.000000e+00
1.000000e+00
1.000000e+00
1.000000e+00
1.000000e+00
1.000000e+00
1.000000e+00
1.000000e+00
1.000000e+00
1.000000e+00
1.000000e+00
1.000000e+00
1.000000e+00
1.000000e+00
1.000000e+00
1.000000e+00
1.000000e+00
1.000000e+00
1.000000e+00
1.000000e+00
1.000000e+00
1.000000e+00
1.000000e+00
1.000000e+00
1.000000e+00
1.000000e+00
1.000000e+00
1.000000e+00
1.000000e+00
1.000000e+00
1.000000e+00
1.000000e+00
1.000000e+00
1.000000e+00
1.000000e+00
1.000000e+00
1.000000e+00
1.000000e+00
1.000000e+00
1.000000e+00
1.000000e+00
1.000000e+00
1.000000e+00
1.000000e+00
1.000000e+00
1.000000e+00
1.000000e+00
1.000000e+00
1.000000e+00
1.000000e+00
1.000000e+00
1.000000e+00
1.000000e+00
1.000000e+00
1.000000e+00
1.000000e+00
1.000000e+00
1.000000e+00
1.000000e+00
1.000000e+00
1.000000e+00
1.000000e+00
1.000000e+00
1.000000e+00
VECTORS Momentum double
8.840549e-14 1.742370e-14 -2.878341e-15
1.374794e-12 1.219944e-13 2.523338e-14
1.894516e-11 1.563465e-12 3.662113e-13
2.411370e-10 1.842610e-11 4.988158e-12
2.880928e-09 2.030423e-10 6.276531e-11
3.135017e-08 2.023164e-09 7.402661e-10
3.188517e-07 1.875743e-08 7.931859e-09
2.882255e-06 1.532246e-07 7.924386e-08
1.039885e-13 1.131707e-14 -1.644834e-15
1.556533e-12 1.378493e-13 1.221566e-14
2.140302e-11 1.766063e-12 1.805952e-13
2.722380e-10 2.079996e-11 2.461247e-12
3.250063e-09 2.290481e-10 3.097050e-11
3.533647e-08 2.280340e-09 3.651043e-10
3.590329e-07 2.112079e-08 3.910040e-09
3.241711e-06 1.723361e-07 3.903490e-08
1.569433e-12 1.390001e-13 -5.101522e-17
2.157938e-11 1.780902e-12 -1.974960e-19
2.744787e-10 2.097234e-11 1.993539e-26
3.276644e-09 2.309193e-10 2.612695e-24
3.562356e-08 2.298876e-09 -4.823934e-26
3.619253e-07 2.129111e-08 3.213550e-23
3.267572e-06 1.737134e-07 1.261922e-21
2.744190e-05 1.311037e-06 4.915433e-21
1.557116e-12 1.378723e-13 -1.244808e-14
2.140309e-11 1.766057e-12 -1.806025e-13
2.722380e-10 2.079996e-11 -2.461247e-12
3.250063e-09 2.290481e-10 -3.097050e-11
3.533647e-08 2.280340e-09 -3.651043e-10
3.590329e-07 2.112079e-08 -3.910040e-09
3.241711e-06 1.723361e-07 -3.903490e-08
2.722756e-05 1.300765e-06 -3.448865e-07
1.378734e-12 1.218631e-13 -2.544103e-14
1.894534e-11 1.563141e-12 -3.662177e-13
2.411370e-10 1.842609e-11 -4.988159e-12
2.880928e-09 2.030423e-10 -6.276531e-11
3.135017e-08 2.023164e-09 -7.402661e-10
3.188517e-07 1.875743e-08 -7.931859e-09
2.882255e-06 1.532246e-07 -7.924386e-08
2.424223e-05 1.158061e-06 -7.007836e-07
5.962784e-14 1.932383e-13 -2.062834e-14
1.252658e-12 1.220459e-13 2.224834e-14
1.760075e-11 1.385260e-12 3.396767e-13
2.264948e-10 1.632639e-11 4.681204e-12
2.736301e-09 1.803969e-10 5.958903e-11
3.009602e-08 1.793252e-09 7.107191e-10
3.094895e-07 1.658799e-08 7.697202e-09
2.826645e-06 1.337564e-07 7.775663e-08
9.748137e-14 2.594835e-14 -1.265738e-14
1.428368e-12 1.206526e-13 1.077110e-14
1.988352e-11 1.560088e-12 1.677558e-13
2.557137e-10 1.842992e-11 2.310787e-12
3.087013e-09 2.034972e-10 2.940264e-11
3.392431e-08 2.021103e-09 3.505526e-10
3.485100e-07 1.867663e-08 3.794666e-09
3.179391e-06 1.504217e-07 3.830605e-08
1.441801e-12 1.214838e-13 -1.665513e-16
2.004835e-11 1.572700e-12 -1.880408e-17
2.578171e-10 1.858269e-11 -1.091481e-19
3.112274e-09 2.051606e-10 -8.840651e-20
3.420014e-08 2.037529e-09 -2.384775e-20
3.513202e-07 1.882717e-08 -6.615392e-20
3.204785e-06 1.516228e-07 -6.325466e-20
2.720854e-05 1.130971e-06 2.665852e-20
1.431999e-12 1.156570e-13 -1.187005e-14
1.988368e-11 1.559022e-12 -1.681381e-13
2.557137e-10 1.842987e-11 -2.310798e-12
3.087013e-09 2.034972e-10 -2.940264e-11
3.392431e-08 2.021103e-09 -3.505526e-10
3.485100e-07 1.867663e-08 -3.794666e-09
3.179391e-06 1.504217e-07 -3.830605e-08
2.699570e-05 1.122126e-06 -3.419875e-07
1.275851e-12 9.363193e-14 -2.400841e-14
1.760173e-11 1.376892e-12 -3.403800e-13
2.264952e-10 1.632594e-11 -4.681225e-12
2.736301e-09 1.803968e-10 -5.958903e-11
3.009602e-08 1.793252e-09 -7.107191e-10
3.094895e-07 1.658799e-08 -7.697202e-09
2.826645e-06 1.337564e-07 -7.775663e-08
2.403356e-05 9.992066e-07 -6.948058e-07
-3.624159e-13 -2.244399e-13 -5.759565e-13
7.823093e-13 4.852283e-14 -3.507334e-14
1.520788e-11 1.140919e-12 2.803110e-13
1.981532e-10 1.360649e-11 4.094501e-12
2.420150e-09 1.508636e-10 5.269297e-11
2.690585e-08 1.498140e-09 6.353024e-10
2.797141e-07 1.384482e-08 6.954418e-09
2.581964e-06 1.104213e-07 7.102023e-08
2.503650e-13 4.698386e-15 -3.361811e-13
1.196380e-12 9.770420e-14 -1.960576e-14
1.720962e-11 1.294858e-12 1.372998e-13
2.237237e-10 1.536073e-11 2.022194e-12
2.730334e-09 1.701715e-10 2.600020e-11
3.032825e-08 1.688324e-09 3.133534e-10
3.149791e-07 1.558585e-08 3.428468e-09
2.904157e-06 1.241519e-07 3.498728e-08
1.237432e-12 1.017974e-13 -8.983589e-15
1.735380e-11 1.306246e-12 -1.800047e-15
2.255651e-10 1.548813e-11 -8.941846e-17
2.752675e-09 1.715623e-10 -3.464525e-18
3.057483e-08 1.702030e-09 -8.897287e-19
3.175189e-07 1.571126e-08 -8.182770e-19
2.927352e-06 1.251406e-07 -1.391475e-18
2.512632e-05 9.242904e-07 4.452630e-19
1.308539e-12 1.136019e-13 -3.403671e-14
1.721822e-11 1.297012e-12 -1.518963e-13
2.237254e-10 1.536098e-11 -2.023017e-12
2.730334e-09 1.701715e-10 -2.600038e-11
3.032825e-08 1.688324e-09 -3.133534e-10
3.149791e-07 1.558585e-08 -3.428468e-09
2.904157e-06 1.241519e-07 -3.498728e-08
2.492978e-05 9.170926e-07 -3.156711e-07
1.386811e-12 1.322727e-13 -5.022937e-14
1.525684e-11 1.152642e-12 -3.049093e-13
1.981668e-10 1.360818e-11 -4.095912e-12
2.420151e-09 1.508637e-10 -5.269328e-11
2.690586e-08 1.498140e-09 -6.353024e-10
2.797141e-07 1.384482e-08 -6.954418e-09
2.581964e-06 1.104213e-07 -7.102023e-08
2.219451e-05 8.169037e-07 -6.413434e-07
4.602439e-13 -1.484000e-13 5.378401e-13
1.207834e-12 8.594981e-14 5.409055e-14
1.318000e-11 9.856655e-13 2.636929e-13
1.730604e-10 1.184524e-11 3.576443e-12
2.136223e-09 1.326293e-10 4.650526e-11
2.400134e-08 1.329423e-09 5.666759e-10
2.522000e-07 1.240152e-08 6.268754e-09
2.352464e-06 9.970692e-08 6.470325e-08
-9.302587e-14 -2.797887e-14 3.188362e-13
1.075948e-12 8.840234e-14 2.812766e-14
1.486942e-11 1.116087e-12 1.313721e-13
1.953809e-10 1.337136e-11 1.767322e-12
2.410002e-09 1.495996e-10 2.294672e-11
2.705407e-08 1.498156e-09 2.795031e-10
2.839934e-07 1.396062e-08 3.090413e-09
2.645983e-06 1.121000e-07 3.187491e-08
1.051754e-12 8.646072e-14 8.358021e-15
1.499391e-11 1.125872e-12 2.263086e-15
1.969872e-10 1.348067e-11 1.617833e-16
2.429720e-09 1.508217e-10 3.454049e-18
2.727401e-08 1.510315e-09 8.035055e-19
2.862832e-07 1.407291e-08 7.287241e-19
2.667113e-06 1.129922e-07 -4.313392e-19
2.313977e-05 8.414400e-07 -6.904258e-19
9.691378e-13 8.369110e-14 1.549089e-14
1.486157e-11 1.116461e-12 -1.192846e-13
1.953787e-10 1.337123e-11 -1.766362e-12
2.410002e-09 1.495996e-10 -2.294660e-11
2.705407e-08 1.498156e-09 -2.795031e-10
2.839934e-07 1.396062e-08 -3.090413e-09
2.645983e-06 1.121000e-07 -3.187491e-08
2.295880e-05 8.348927e-07 -2.905887e-07
6.375066e-13 6.313470e-14 1.326944e-14
1.314091e-11 9.907545e-13 -2.448560e-13
1.730492e-10 1.184488e-11 -3.574904e-12
2.136222e-09 1.326294e-10 -4.650508e-11
2.400133e-08 1.329423e-09 -5.666759e-10
2.522000e-07 1.240152e-08 -6.268754e-09
2.352464e-06 9.970692e-08 -6.470325e-08
2.044016e-05 7.437366e-07 -5.903940e-07
6.724059e-14 1.849473e-13 1.636006e-14
7.966549e-13 7.360010e-14 1.649440e-14
1.134053e-11 8.229822e-13 2.183197e-13
1.506569e-10 9.855986e-12 3.112741e-12
1.879602e-09 1.106521e-10 4.090256e-11
2.134109e-08 1.107087e-09 5.037619e-10
2.266519e-07 1.029903e-08 5.631311e-09
5.369968e-14 2.375819e-14 9.534486e-15
8.916790e-13 7.000437e-14 8.275323e-15
1.280995e-11 9.262242e-13 1.077594e-13
1.700894e-10 1.112504e-11 1.536814e-12
2.120470e-09 1.247997e-10 2.018155e-11
2.405513e-08 1.247449e-09 2.484669e-10
2.552202e-07 1.159179e-08 2.776114e-09
8.983177e-13 7.032070e-14 3.592996e-16
1.291617e-11 9.334081e-13 2.662765e-17
1.714881e-10 1.121542e-11 3.326456e-18
2.137817e-09 1.258188e-10 6.657429e-20
2.425066e-08 1.257560e-09 2.191480e-20
2.572776e-07 1.168485e-08 1.191518e-22
2.421951e-06 9.251072e-08 2.232611e-21
2.123948e-05 6.784620e-07 7.900725e-21
8.887981e-13 6.477687e-14 -5.688606e-15
1.280961e-11 9.248419e-13 -1.073610e-13
1.700894e-10 1.112494e-11 -1.536653e-12
2.120470e-09 1.247997e-10 -2.018154e-11
2.405513e-08 1.247449e-09 -2.484669e-10
2.552202e-07 1.159179e-08 -2.776114e-09
2.402768e-06 9.178249e-08 -2.893848e-08
2.107342e-05 6.732105e-07 -2.665501e-07
7.794113e-13 4.735489e-14 -1.222579e-14
1.133831e-11 8.158967e-13 -2.176065e-13
1.506565e-10 9.855401e-12 -3.112438e-12
1.879602e-09 1.106520e-10 -4.090255e-11
2.134109e-08 1.107087e-09 -5.037619e-10
2.266519e-07 1.029903e-08 -5.631311e-09
2.136277e-06 8.165799e-08 -5.874383e-08
1.876215e-05 5.999648e-07 -5.415699e-07
4.050292e-14 9.629213e-15 1.653082e-15
6.221669e-13 4.595998e-14 1.157514e-14
9.048662e-12 5.919870e-13 1.746233e-13
1.215598e-10 7.093922e-12 2.508554e-12
1.533940e-09 7.927288e-11 3.333013e-11
1.761043e-08 7.805980e-10 4.151399e-10
1.892137e-07 7.140391e-09 4.691734e-09
4.303952e-14 3.867963e-15 9.763443e-16
7.028878e-13 5.082924e-14 5.742892e-15