# vtk DataFile Version 2.0
Simplicial Mesh Example
ASCII
DATASET UNSTRUCTURED_GRID
POINTS 1302 double
0.000000e+00 1.000000e+00 5.000000e-01
-5.551115e-17 1.000000e+00 3.000000e-01
3.302130e-02 6.666667e-01 5.000000e-01
3.302130e-02 6.666667e-01 3.000000e-01
-2.000000e-01 1.000000e+00 5.000000e-01
-2.000000e-01 1.000000e+00 3.000000e-01
-1.691801e-01 6.666667e-01 5.000000e-01
-1.691801e-01 6.666667e-01 3.000000e-01
-4.000000e-01 1.000000e+00 5.000000e-01
-4.000000e-01 1.000000e+00 3.000000e-01
-3.713816e-01 6.666667e-01 5.000000e-01
-3.713816e-01 6.666667e-01 3.000000e-01
-6.000000e-01 1.000000e+00 5.000000e-01
-6.000000e-01 1.000000e+00 3.000000e-01
-5.735829e-01 6.666667e-01 5.000000e-01
-5.735829e-01 6.666667e-01 3.000000e-01
-8.000000e-01 1.000000e+00 5.000000e-01
-8.000000e-01 1.000000e+00 3.000000e-01
-7.757844e-01 6.666667e-01 5.000000e-01
-7.757844e-01 6.666667e-01 3.000000e-01
-1.000000e+00 1.000000e+00 5.000000e-01
-1.000000e+00 1.000000e+00 3.000000e-01
-9.779858e-01 6.666667e-01 5.000000e-01
-9.779858e-01 6.666667e-01 3.000000e-01
-1.200000e+00 1.000000e+00 5.000000e-01
-1.200000e+00 1.000000e+00 3.000000e-01
-1.180187e+00 6.666667e-01 5.000000e-01
-1.180187e+00 6.666667e-01 3.000000e-01
-2.000000e-01 1.000000e+00 1.000000e-01
-1.691801e-01 6.666667e-01 1.000000e-01
-4.000000e-01 1.000000e+00 1.000000e-01
-3.713816e-01 6.666667e-01 1.000000e-01
-6.000000e-01 1.000000e+00 1.000000e-01
-5.735829e-01 6.666667e-01 1.000000e-01
-8.000000e-01 1.000000e+00 1.000000e-01
-7.757844e-01 6.666667e-01 1.000000e-01
-1.000000e+00 1.000000e+00 1.000000e-01
-9.779858e-01 6.666667e-01 1.000000e-01
-1.200000e+00 1.000000e+00 1.000000e-01
-1.180187e+00 6.666667e-01 1.000000e-01
-2.000000e-01 1.000000e+00 -1.000000e-01
-1.691801e-01 6.666667e-01 -1.000000e-01
-4.000000e-01 1.000000e+00 -1.000000e-01
-3.713816e-01 6.666667e-01 -1.000000e-01
-6.000000e-01 1.000000e+00 -1.000000e-01
-5.735829e-01 6.666667e-01 -1.000000e-01
-8.000000e-01 1.000000e+00 -1.000000e-01
-7.757844e-01 6.666667e-01 -1.000000e-01
-1.000000e+00 1.000000e+00 -1.000000e-01
-9.779858e-01 6.666667e-01 -1.000000e-01
-1.200000e+00 1.000000e+00 -1.000000e-01
-1.180187e+00 6.666667e-01 -1.000000e-01
-1.400000e+00 1.000000e+00 -1.000000e-01
-1.382389e+00 6.666667e-01 -1.000000e-01
-2.000000e-01 1.000000e+00 -3.000000e-01
-1.691801e-01 6.666667e-01 -3.000000e-01
-4.000000e-01 1.000000e+00 -3.000000e-01
-3.713816e-01 6.666667e-01 -3.000000e-01
-6.000000e-01 1.000000e+00 -3.000000e-01
-5.735829e-01 6.666667e-01 -3.000000e-01
-8.000000e-01 1.000000e+00 -3.000000e-01
-7.757844e-01 6.666667e-01 -3.000000e-01
-1.000000e+00 1.000000e+00 -3.000000e-01
-9.779858e-01 6.666667e-01 -3.000000e-01
-1.200000e+00 1.000000e+00 -3.000000e-01
-1.180187e+00 6.666667e-01 -3.000000e-01
-1.400000e+00 1.000000e+00 -3.000000e-01
-1.382389e+00 6.666667e-01 -3.000000e-01
-2.000000e-01 1.000000e+00 -5.000000e-01
-1.691801e-01 6.666667e-01 -5.000000e-01
-4.000000e-01 1.000000e+00 -5.000000e-01
-3.713816e-01 6.666667e-01 -5.000000e-01
-6.000000e-01 1.000000e+00 -5.000000e-01
-5.735829e-01 6.666667e-01 -5.000000e-01
-8.000000e-01 1.000000e+00 -5.000000e-01
-7.757844e-01 6.666667e-01 -5.000000e-01
-1.000000e+00 1.000000e+00 -5.000000e-01
-9.779858e-01 6.666667e-01 -5.000000e-01
-1.200000e+00 1.000000e+00 -5.000000e-01
-1.180187e+00 6.666667e-01 -5.000000e-01
-1.400000e+00 1.000000e+00 -5.000000e-01
-1.382389e+00 6.666667e-01 -5.000000e-01
6.604260e-02 3.333333e-01 5.000000e-01
6.604260e-02 3.333333e-01 3.000000e-01
-1.383602e-01 3.333333e-01 5.000000e-01
-1.383602e-01 3.333333e-01 3.000000e-01
-3.427631e-01 3.333333e-01 5.000000e-01
-3.427631e-01 3.333333e-01 3.000000e-01
-5.471659e-01 3.333333e-01 5.000000e-01
-5.471659e-01 3.333333e-01 3.000000e-01
-7.515687e-01 3.333333e-01 5.000000e-01
-7.515687e-01 3.333333e-01 3.000000e-01
-9.559716e-01 3.333333e-01 5.000000e-01
-9.559716e-01 3.333333e-01 3.000000e-01
-1.160374e+00 3.333333e-01 5.000000e-01
-1.160374e+00 3.333333e-01 3.000000e-01
-1.383602e-01 3.333333e-01 1.000000e-01
-3.427631e-01 3.333333e-01 1.000000e-01
-5.471659e-01 3.333333e-01 1.000000e-01
-7.515687e-01 3.333333e-01 1.000000e-01
-9.559716e-01 3.333333e-01 1.000000e-01
-1.160374e+00 3.333333e-01 1.000000e-01
-1.383602e-01 3.333333e-01 -1.000000e-01
-3.427631e-01 3.333333e-01 -1.000000e-01
-5.471659e-01 3.333333e-01 -1.000000e-01
-7.515687e-01 3.333333e-01 -1.000000e-01
-9.559716e-01 3.333333e-01 -1.000000e-01
-1.160374e+00 3.333333e-01 -1.000000e-01
-1.364777e+00 3.333333e-01 -1.000000e-01
-1.383602e-01 3.333333e-01 -3.000000e-01
-3.427631e-01 3.333333e-01 -3.000000e-01
-5.471659e-01 3.333333e-01 -3.000000e-01
-7.515687e-01 3.333333e-01 -3.000000e-01
-9.559716e-01 3.333333e-01 -3.000000e-01
-1.160374e+00 3.333333e-01 -3.000000e-01
-1.364777e+00 3.333333e-01 -3.000000e-01
-1.383602e-01 3.333333e-01 -5.000000e-01
-3.427631e-01 3.333333e-01 -5.000000e-01
-5.471659e-01 3.333333e-01 -5.000000e-01
-7.515687e-01 3.333333e-01 -5.000000e-01
-9.559716e-01 3.333333e-01 -5.000000e-01
-1.160374e+00 3.333333e-01 -5.000000e-01
-1.364777e+00 3.333333e-01 -5.000000e-01
9.906390e-02 -2.775558e-17 5.000000e-01
9.906390e-02 -5.551115e-17 3.000000e-01
-1.075404e-01 0.000000e+00 5.000000e-01
-1.075404e-01 0.000000e+00 3.000000e-01
-3.141446e-01 0.000000e+00 5.000000e-01
-3.141446e-01 0.000000e+00 3.000000e-01
-5.207489e-01 0.000000e+00 5.000000e-01
-5.207489e-01 0.000000e+00 3.000000e-01
-7.273532e-01 -5.551115e-17 5.000000e-01
-7.273532e-01 0.000000e+00 3.000000e-01
-9.339574e-01 0.000000e+00 5.000000e-01
-9.339574e-01 0.000000e+00 3.000000e-01
-1.140562e+00 0.000000e+00 5.000000e-01
-1.140562e+00 0.000000e+00 3.000000e-01
-1.075404e-01 -2.775558e-17 1.000000e-01
-3.141446e-01 0.000000e+00 1.000000e-01
-5.207489e-01 -2.775558e-17 1.000000e-01
-7.273532e-01 0.000000e+00 1.000000e-01
-9.339574e-01 0.000000e+00 1.000000e-01
-1.140562e+00 -2.775558e-17 1.000000e-01
-1.075404e-01 0.000000e+00 -1.000000e-01
-3.141446e-01 0.000000e+00 -1.000000e-01
-5.207489e-01 -2.775558e-17 -1.000000e-01
-7.273532e-01 0.000000e+00 -1.000000e-01
-9.339574e-01 0.000000e+00 -1.000000e-01
-1.140562e+00 -2.775558e-17 -1.000000e-01
-1.347166e+00 0.000000e+00 -1.000000e-01
-1.075404e-01 -2.775558e-17 -3.000000e-01
-3.141446e-01 0.000000e+00 -3.000000e-01
-5.207489e-01 0.000000e+00 -3.000000e-01
-7.273532e-01 -2.775558e-17 -3.000000e-01
-9.339574e-01 -2.775558e-17 -3.000000e-01
-1.140562e+00 -2.775558e-17 -3.000000e-01
-1.347166e+00 -5.551115e-17 -3.000000e-01
-1.075404e-01 0.000000e+00 -5.000000e-01
-3.141446e-01 0.000000e+00 -5.000000e-01
-5.207489e-01 0.000000e+00 -5.000000e-01
-7.273532e-01 0.000000e+00 -5.000000e-01
-9.339574e-01 0.000000e+00 -5.000000e-01
-1.140562e+00 0.000000e+00 -5.000000e-01
-1.347166e+00 -5.551115e-17 -5.000000e-01
1.320852e-01 -3.333333e-01 5.000000e-01
1.320852e-01 -3.333333e-01 3.000000e-01
-7.672048e-02 -3.333333e-01 5.000000e-01
-7.672048e-02 -3.333333e-01 3.000000e-01
-2.855262e-01 -3.333333e-01 5.000000e-01
-2.855262e-01 -3.333333e-01 3.000000e-01
-4.943318e-01 -3.333333e-01 5.000000e-01
-4.943318e-01 -3.333333e-01 3.000000e-01
-7.031375e-01 -3.333333e-01 5.000000e-01
-7.031375e-01 -3.333333e-01 3.000000e-01
-9.119432e-01 -3.333333e-01 5.000000e-01
-9.119432e-01 -3.333333e-01 3.000000e-01
-7.672048e-02 -3.333333e-01 1.000000e-01
-2.855262e-01 -3.333333e-01 1.000000e-01
-4.943318e-01 -3.333333e-01 1.000000e-01
-7.031375e-01 -3.333333e-01 1.000000e-01
-9.119432e-01 -3.333333e-01 1.000000e-01
-7.672048e-02 -3.333333e-01 -1.000000e-01
-2.855262e-01 -3.333333e-01 -1.000000e-01
-4.943318e-01 -3.333333e-01 -1.000000e-01
-7.031375e-01 -3.333333e-01 -1.000000e-01
-9.119432e-01 -3.333333e-01 -1.000000e-01
-1.120749e+00 -3.333333e-01 -1.000000e-01
-1.329555e+00 -3.333333e-01 -1.000000e-01
-7.672048e-02 -3.333333e-01 -3.000000e-01
-2.855262e-01 -3.333333e-01 -3.000000e-01
-4.943318e-01 -3.333333e-01 -3.000000e-01
-7.031375e-01 -3.333333e-01 -3.000000e-01
-9.119432e-01 -3.333333e-01 -3.000000e-01
-1.120749e+00 -3.333333e-01 -3.000000e-01
-1.329555e+00 -3.333333e-01 -3.000000e-01
-7.672048e-02 -3.333333e-01 -5.000000e-01
-2.855262e-01 -3.333333e-01 -5.000000e-01
-4.943318e-01 -3.333333e-01 -5.000000e-01
-7.031375e-01 -3.333333e-01 -5.000000e-01
-9.119432e-01 -3.333333e-01 -5.000000e-01
-1.120749e+00 -3.333333e-01 -5.000000e-01
-1.329555e+00 -3.333333e-01 -5.000000e-01
1.651065e-01 -6.666667e-01 5.000000e-01
1.651065e-01 -6.666667e-01 3.000000e-01
-4.590059e-02 -6.666667e-01 5.000000e-01
-4.590059e-02 -6.666667e-01 3.000000e-01
-2.569077e-01 -6.666667e-01 5.000000e-01
-2.569077e-01 -6.666667e-01 3.000000e-01
-4.679148e-01 -6.666667e-01 5.000000e-01
-4.679148e-01 -6.666667e-01 3.000000e-01
-6.789219e-01 -6.666667e-01 5.000000e-01
-6.789219e-01 -6.666667e-01 3.000000e-01
-8.899290e-01 -6.666667e-01 5.000000e-01
-8.899290e-01 -6.666667e-01 3.000000e-01
-4.590059e-02 -6.666667e-01 1.000000e-01
-2.569077e-01 -6.666667e-01 1.000000e-01
-4.679148e-01 -6.666667e-01 1.000000e-01
-6.789219e-01 -6.666667e-01 1.000000e-01
-8.899290e-01 -6.666667e-01 1.000000e-01
-4.590059e-02 -6.666667e-01 -1.000000e-01
-2.569077e-01 -6.666667e-01 -1.000000e-01
-4.679148e-01 -6.666667e-01 -1.000000e-01
-6.789219e-01 -6.666667e-01 -1.000000e-01
-8.899290e-01 -6.666667e-01 -1.000000e-01
-1.100936e+00 -6.666667e-01 -1.000000e-01
-1.311943e+00 -6.666667e-01 -1.000000e-01
-4.590059e-02 -6.666667e-01 -3.000000e-01
-2.569077e-01 -6.666667e-01 -3.000000e-01
-4.679148e-01 -6.666667e-01 -3.000000e-01
-6.789219e-01 -6.666667e-01 -3.000000e-01
-8.899290e-01 -6.666667e-01 -3.000000e-01
-1.100936e+00 -6.666667e-01 -3.000000e-01
-1.311943e+00 -6.666667e-01 -3.000000e-01
-4.590059e-02 -6.666667e-01 -5.000000e-01
-2.569077e-01 -6.666667e-01 -5.000000e-01
-4.679148e-01 -6.666667e-01 -5.000000e-01
-6.789219e-01 -6.666667e-01 -5.000000e-01
-8.899290e-01 -6.666667e-01 -5.000000e-01
-1.100936e+00 -6.666667e-01 -5.000000e-01
-1.311943e+00 -6.666667e-01 -5.000000e-01
1.981278e-01 -1.000000e+00 5.000000e-01
1.981278e-01 -1.000000e+00 3.000000e-01
[...]
CELL_DATA 900
SCALARS Density double 1
LOOKUP_TABLE default
1.000000e+00
1.000000e+00
1.000000e+00
1.000000e+00
1.000000e+00
1.000000e+00
1.000000e+00
1.000000e+00
1.000000e+00
1.000000e+00
1.000000e+00
1.000000e+00
1.000000e+00
1.000000e+00
1.000000e+00
1.000000e+00
1.000000e+00
1.000000e+00
1.000000e+00
1.000000e+00
1.000000e+00
1.000000e+00
1.000000e+00
1.000004e+00
1.000000e+00
1.000000e+00
1.000000e+00
1.000000e+00
1.000000e+00
1.000000e+00
1.000000e+00
1.000004e+00
1.000000e+00
1.000000e+00
1.000000e+00
1.000000e+00
1.000000e+00
1.000000e+00
1.000000e+00
1.000003e+00
1.000000e+00
1.000000e+00
1.000000e+00
1.000000e+00
1.000000e+00
1.000000e+00
1.000000e+00
1.000000e+00
1.000000e+00
1.000000e+00
1.000000e+00
1.000000e+00
1.000000e+00
1.000000e+00
1.000000e+00
1.000000e+00
1.000000e+00
1.000000e+00
1.000000e+00
1.000000e+00
1.000000e+00
1.000000e+00
1.000000e+00
1.000004e+00
1.000000e+00
1.000000e+00
1.000000e+00
1.000000e+00
1.000000e+00
1.000000e+00
1.000000e+00
1.000004e+00
1.000000e+00
1.000000e+00
1.000000e+00
1.000000e+00
1.000000e+00
1.000000e+00
1.000000e+00
1.000003e+00
1.000000e+00
1.000000e+00
1.000000e+00
1.000000e+00
1.000000e+00
1.000000e+00
1.000000e+00
1.000000e+00
1.000000e+00
1.000000e+00
1.000000e+00
1.000000e+00
1.000000e+00
1.000000e+00
1.000000e+00
1.000000e+00
1.000000e+00
1.000000e+00
1.000000e+00
1.000000e+00
1.000000e+00
1.000000e+00
1.000000e+00
1.000003e+00
1.000000e+00
1.000000e+00
1.000000e+00
1.000000e+00
1.000000e+00
1.000000e+00
1.000000e+00
1.000003e+00
1.000000e+00
1.000000e+00
1.000000e+00
1.000000e+00
1.000000e+00
1.000000e+00
1.000000e+00
1.000003e+00
1.000000e+00
1.000000e+00
1.000000e+00
1.000000e+00
1.000000e+00
1.000000e+00
1.000000e+00
1.000000e+00
1.000000e+00
1.000000e+00
1.000000e+00
1.000000e+00
1.000000e+00
1.000000e+00
1.000000e+00
1.000000e+00
1.000000e+00
1.000000e+00
1.000000e+00
1.000000e+00
1.000000e+00
1.000000e+00
1.000000e+00
1.000003e+00
1.000000e+00
1.000000e+00
1.000000e+00
1.000000e+00
1.000000e+00
1.000000e+00
1.000000e+00
1.000003e+00
1.000000e+00
1.000000e+00
1.000000e+00
1.000000e+00
1.000000e+00
1.000000e+00
1.000000e+00
1.000003e+00
1.000000e+00
1.000000e+00
1.000000e+00
1.000000e+00
1.000000e+00
1.000000e+00
1.000000e+00
1.000000e+00
1.000000e+00
1.000000e+00
1.000000e+00
1.000000e+00
1.000000e+00
1.000000e+00
1.000000e+00
1.000000e+00
1.000000e+00
1.000000e+00
1.000000e+00
1.000000e+00
1.000000e+00
1.000003e+00
1.000000e+00
1.000000e+00
1.000000e+00
1.000000e+00
1.000000e+00
1.000000e+00
1.000000e+00
1.000003e+00
1.000000e+00
1.000000e+00
1.000000e+00
1.000000e+00
1.000000e+00
1.000000e+00
1.000000e+00
1.000003e+00
1.000000e+00
1.000000e+00
1.000000e+00
1.000000e+00
1.000000e+00
1.000000e+00
1.000000e+00
1.000000e+00
1.000000e+00
1.000000e+00
1.000000e+00
1.000000e+00
1.000000e+00
1.000000e+00
1.000000e+00
1.000000e+00
1.000000e+00
1.000000e+00
1.000000e+00
1.000000e+00
1.000000e+00
1.000002e+00
1.000000e+00
1.000000e+00
1.000000e+00
1.000000e+00
1.000000e+00
1.000000e+00
1.000000e+00
1.000002e+00
1.000000e+00
1.000000e+00
1.000000e+00
1.000000e+00
1.000000e+00
1.000000e+00
1.000000e+00
1.000002e+00
1.000003e+00
1.000027e+00
1.000178e+00
1.001094e+00
1.005277e+00
1.021616e+00
1.064391e+00
1.123714e+00
1.000004e+00
1.000030e+00
1.000198e+00
1.001211e+00
1.005814e+00
1.023619e+00
1.069398e+00
1.129447e+00
1.000030e+00
1.000200e+00
1.001219e+00
1.005852e+00
1.023755e+00
1.069720e+00
1.129734e+00
1.000030e+00
1.000198e+00
1.001211e+00
1.005814e+00
1.023619e+00
1.069398e+00
1.129447e+00
1.000027e+00
1.000178e+00
1.001094e+00
1.005277e+00
1.021616e+00
1.064391e+00
1.123714e+00
1.000003e+00
1.000027e+00
1.000179e+00
1.001111e+00
1.005399e+00
1.022291e+00
1.066541e+00
1.127006e+00
1.000004e+00
1.000030e+00
1.000199e+00
1.001229e+00
1.005951e+00
1.024366e+00
1.071746e+00
1.132973e+00
1.000030e+00
1.000201e+00
1.001238e+00
1.005989e+00
1.024508e+00
1.072082e+00
1.133273e+00
1.000030e+00
1.000199e+00
1.001229e+00
1.005951e+00
1.024366e+00
1.071746e+00
1.132973e+00
1.000027e+00
1.000179e+00
1.001111e+00
1.005399e+00
1.022291e+00
1.066541e+00
1.127006e+00
1.000003e+00
1.000025e+00
1.000169e+00
1.001059e+00
1.005198e+00
1.021722e+00
1.065491e+00
1.126507e+00
1.000003e+00
1.000028e+00
1.000188e+00
1.001172e+00
1.005729e+00
1.023745e+00
1.070624e+00
1.132472e+00
1.000028e+00
1.000189e+00
1.001180e+00
1.005766e+00
1.023884e+00
1.070956e+00
1.132775e+00
1.000028e+00
1.000188e+00
1.001172e+00
1.005729e+00
1.023745e+00
1.070624e+00
1.132472e+00
1.000025e+00
1.000169e+00
1.001059e+00
1.005198e+00
1.021722e+00
1.065491e+00
1.126507e+00
1.000003e+00
1.000023e+00
1.000159e+00
1.001006e+00
1.004989e+00
1.021103e+00
1.064276e+00
1.125786e+00
1.000003e+00
1.000026e+00
1.000176e+00
1.001114e+00
1.005499e+00
1.023070e+00
1.069321e+00
1.131734e+00
1.000026e+00
1.000178e+00
1.001121e+00
1.005535e+00
1.023204e+00
1.069648e+00
1.132039e+00
1.000026e+00
1.000176e+00
1.001114e+00
1.005499e+00
1.023070e+00
1.069321e+00
1.131734e+00
1.000023e+00
1.000159e+00
1.001006e+00
1.004989e+00
1.021103e+00
1.064276e+00
1.125786e+00
1.000000e+00
1.000003e+00
1.000021e+00
1.000149e+00
1.000953e+00
1.004773e+00
1.020435e+00
1.062897e+00
1.124839e+00
1.000000e+00
1.000003e+00
1.000024e+00
1.000165e+00
1.001055e+00
1.005260e+00
1.022338e+00
1.067836e+00
1.130753e+00
1.000024e+00
1.000166e+00
1.001062e+00
1.005294e+00
1.022469e+00
1.068158e+00
1.131059e+00
1.000024e+00
1.000165e+00
1.001055e+00
1.005260e+00
1.022338e+00
1.067836e+00
1.130753e+00
1.000021e+00
1.000149e+00
1.000953e+00
1.004773e+00
1.020435e+00
1.062897e+00
1.124839e+00
1.000000e+00
1.000002e+00
1.000019e+00
1.000130e+00
1.000847e+00
1.004293e+00
1.018701e+00
1.058635e+00
1.120235e+00
1.000000e+00
1.000002e+00
1.000021e+00
1.000145e+00
1.000937e+00
1.004730e+00
1.020435e+00
1.063225e+00
1.125886e+00
1.000021e+00
1.000146e+00
1.000943e+00
1.004760e+00
1.020554e+00
1.063525e+00
1.126183e+00
1.000021e+00
1.000145e+00
1.000937e+00
1.004730e+00
1.020435e+00
1.063225e+00
1.125886e+00
1.000019e+00
1.000130e+00
1.000847e+00
1.004293e+00
1.018701e+00
1.058635e+00
1.120235e+00
1.000000e+00
1.000000e+00
1.000000e+00
1.000000e+00
1.000000e+00
1.000000e+00
1.000000e+00
1.000000e+00
1.000000e+00
1.000000e+00
1.000000e+00
1.000000e+00
1.000000e+00
1.000000e+00
1.000000e+00
1.000000e+00
1.000000e+00
1.000000e+00
1.000000e+00
1.000000e+00
1.000000e+00
1.000000e+00
1.000000e+00
1.000000e+00
1.000000e+00
1.000000e+00
1.000000e+00
1.000000e+00
1.000000e+00
1.000000e+00
1.000000e+00
1.000000e+00
1.000000e+00
1.000000e+00
1.000000e+00
1.000000e+00
1.000000e+00
1.000000e+00
1.000000e+00
1.000000e+00
1.000000e+00
1.000000e+00
1.000000e+00
1.000000e+00
1.000000e+00
1.000000e+00
1.000000e+00
1.000000e+00
1.000000e+00
1.000000e+00
1.000000e+00
1.000000e+00
1.000000e+00
1.000000e+00
1.000000e+00
1.000000e+00
1.000000e+00
1.000000e+00
1.000000e+00
1.000000e+00
1.000000e+00
1.000000e+00
1.000000e+00
1.000000e+00
1.000000e+00
1.000000e+00
1.000000e+00
1.000000e+00
1.000000e+00
1.000000e+00
1.000000e+00
1.000000e+00
1.000000e+00
1.000000e+00
1.000000e+00
1.000000e+00
1.000000e+00
1.000000e+00
1.000000e+00
1.000000e+00
1.000000e+00
1.000000e+00
1.000000e+00
1.000000e+00
1.000000e+00
1.000000e+00
1.000000e+00
1.000000e+00
1.000000e+00
1.000000e+00
1.000000e+00
1.000000e+00
1.000000e+00
1.000000e+00
1.000000e+00
1.000000e+00
1.000000e+00
1.000000e+00
1.000000e+00
1.000000e+00
1.000000e+00
1.000000e+00
1.000000e+00
1.000000e+00
1.000000e+00
1.000000e+00
1.000000e+00
1.000000e+00
1.000000e+00
1.000000e+00
1.000000e+00
1.000000e+00
1.000000e+00
1.000000e+00
1.000000e+00
1.000000e+00
1.000000e+00
1.000000e+00
1.000000e+00
1.000000e+00
1.000000e+00
1.000000e+00
1.000000e+00
1.000000e+00
1.000000e+00
1.000000e+00
1.000000e+00
1.000000e+00
1.000000e+00
1.000000e+00
1.000000e+00
1.000000e+00
1.000000e+00
1.000000e+00
1.000000e+00
1.000000e+00
1.000000e+00
1.000000e+00
1.000000e+00
1.000000e+00
1.000000e+00
1.000000e+00
1.000000e+00
1.000000e+00
1.000000e+00
1.000000e+00
1.000000e+00
1.000000e+00
1.000000e+00
1.000000e+00
1.000000e+00
1.000000e+00
1.000000e+00
1.000000e+00
1.000000e+00
1.000000e+00
1.000000e+00
1.000000e+00
1.000000e+00
1.000000e+00
1.000000e+00
1.000000e+00
1.000000e+00
1.000000e+00
1.000000e+00
1.000000e+00
1.000000e+00
1.000000e+00
1.000000e+00
1.000000e+00
1.000000e+00
1.000000e+00
1.000000e+00
1.000000e+00
1.000000e+00
1.000000e+00
1.000000e+00
1.000000e+00
1.000000e+00
1.000000e+00
1.000000e+00
1.000000e+00
1.000000e+00
1.000000e+00
1.000000e+00
1.000000e+00
1.000000e+00
1.000000e+00
1.000000e+00
1.000000e+00
1.000000e+00
1.000000e+00
1.000000e+00
1.000000e+00
1.000000e+00
1.000000e+00
1.000000e+00
1.000000e+00
1.000000e+00
1.000000e+00
1.000000e+00
1.000000e+00
1.000000e+00
1.000000e+00
1.000000e+00
1.000000e+00
1.000000e+00
1.000000e+00
1.000000e+00
1.000000e+00
1.000000e+00
1.000000e+00
1.000000e+00
1.000000e+00
1.000000e+00
1.000000e+00
1.000000e+00
1.000000e+00
1.000000e+00
1.000000e+00
1.000000e+00
1.000000e+00
1.000000e+00
1.000000e+00
1.000000e+00
1.000000e+00
1.000000e+00
1.000000e+00
1.000000e+00
1.000000e+00
1.000000e+00
1.000000e+00
1.000000e+00
1.000000e+00
1.000000e+00
1.000000e+00
1.000000e+00
1.000000e+00
1.000000e+00
1.000000e+00
1.000000e+00
1.000000e+00
1.000000e+00
1.000000e+00
1.000000e+00
1.000000e+00
1.000000e+00
1.000000e+00
1.000000e+00
1.000000e+00
1.000000e+00
1.000000e+00
1.000000e+00
1.000000e+00
1.000000e+00
1.000000e+00
1.000000e+00
1.000000e+00
1.000000e+00
1.000000e+00
1.000000e+00
1.000000e+00
1.000000e+00
1.000000e+00
1.000000e+00
1.000000e+00
1.000000e+00
1.000000e+00
1.000000e+00
1.000000e+00
1.000000e+00
1.000000e+00
1.000000e+00
1.000000e+00
1.000000e+00
1.000000e+00
1.000000e+00
1.000000e+00
1.000000e+00
1.000000e+00
1.000000e+00
1.000000e+00
1.000000e+00
1.000000e+00
1.000000e+00
1.000000e+00
1.000000e+00
1.000000e+00
1.000000e+00
1.000000e+00
1.000000e+00
1.000000e+00
1.000000e+00
1.000000e+00
1.000000e+00
1.000000e+00
1.000000e+00
1.000000e+00
1.000000e+00
1.000000e+00
1.000000e+00
1.000000e+00
1.000000e+00
1.000000e+00
1.000000e+00
1.000000e+00
1.000000e+00
1.000000e+00
1.000000e+00
1.000000e+00
1.000000e+00
1.000000e+00
1.000000e+00
1.000000e+00
1.000000e+00
1.000000e+00
1.000000e+00
1.000000e+00
1.000000e+00
1.000000e+00
1.000000e+00
1.000000e+00
1.000000e+00
1.000000e+00
1.000000e+00
1.000000e+00
1.000000e+00
1.000000e+00
1.000000e+00
1.000000e+00
1.000000e+00
1.000000e+00
1.000000e+00
1.000000e+00
1.000000e+00
1.000000e+00
1.000000e+00
1.000000e+00
1.000000e+00
1.000000e+00
1.000000e+00
1.000000e+00
1.000000e+00
1.000000e+00
1.000000e+00
1.000000e+00
1.000000e+00
1.000000e+00
1.000000e+00
1.000000e+00
1.000000e+00
1.000000e+00
1.000000e+00
1.000000e+00
1.000000e+00
1.000000e+00
1.000000e+00
1.000000e+00
1.000000e+00
1.000000e+00
1.000000e+00
1.000000e+00
1.000000e+00
1.000000e+00
1.000000e+00
1.000000e+00
1.000000e+00
1.000000e+00
1.000000e+00
1.000000e+00
1.000000e+00
1.000000e+00
1.000000e+00
1.000000e+00
1.000000e+00
1.000000e+00
1.000000e+00
1.000000e+00
1.000000e+00
1.000000e+00
1.000000e+00
1.000000e+00
1.000000e+00
1.000000e+00
1.000000e+00
1.000000e+00
1.000000e+00
1.000000e+00
1.000000e+00
1.000000e+00
1.000000e+00
1.000000e+00
1.000000e+00
1.000000e+00
1.000000e+00
1.000000e+00
1.000000e+00
1.000000e+00
1.000000e+00
1.000000e+00
1.000000e+00
1.000000e+00
1.000000e+00
1.000000e+00
1.000000e+00
1.000000e+00
1.000000e+00
1.000000e+00
1.000000e+00
1.000000e+00
1.000000e+00
1.000000e+00
1.000000e+00
1.000000e+00
1.000000e+00
1.000000e+00
1.000000e+00
1.000000e+00
1.000000e+00
1.000000e+00
1.000000e+00
1.000000e+00
1.000000e+00
1.000000e+00
1.000000e+00
1.000000e+00
1.000000e+00
1.000000e+00
1.000000e+00
1.000000e+00
1.000000e+00
1.000000e+00
1.000000e+00
1.000000e+00
1.000000e+00
1.000000e+00
1.000000e+00
1.000000e+00
VECTORS Momentum double
3.161608e-14 8.717270e-15 -1.476765e-15
5.648600e-13 5.018721e-14 9.249251e-15
8.296222e-12 6.848110e-13 1.437902e-13
1.122669e-10 8.575670e-12 2.085047e-12
1.426329e-09 1.004024e-10 2.789351e-11
1.649400e-08 1.061696e-09 3.499474e-10
1.783848e-07 1.045103e-08 3.985800e-09
1.712336e-06 9.042285e-08 4.235669e-08
3.846638e-14 4.281890e-15 -7.823276e-16
6.359119e-13 5.632946e-14 4.390769e-15
9.317936e-12 7.690828e-13 7.018611e-14
1.260116e-10 9.623644e-12 1.018282e-12
1.599855e-09 1.126121e-10 1.362832e-11
1.848591e-08 1.189873e-09 1.708781e-10
1.997407e-07 1.170194e-08 1.945045e-09
1.915259e-06 1.011389e-07 2.065212e-08
6.406268e-13 5.674734e-14 -2.492797e-17
9.386805e-12 7.749640e-13 -6.554409e-20
1.269490e-10 9.696405e-12 9.142181e-27
1.611677e-09 1.134421e-10 1.283011e-24
1.862163e-08 1.198612e-09 -2.266912e-27
2.011955e-07 1.178724e-08 2.408957e-23
1.929078e-06 1.018698e-07 1.248613e-21
1.723138e-05 8.154363e-07 1.922020e-20
6.361154e-13 5.636059e-14 -4.517778e-15
9.317976e-12 7.690816e-13 -7.019037e-14
1.260116e-10 9.623644e-12 -1.018282e-12
1.599855e-09 1.126121e-10 -1.362832e-11
1.848591e-08 1.189873e-09 -1.708781e-10
1.997407e-07 1.170194e-08 -1.945045e-09
1.915259e-06 1.011389e-07 -2.065212e-08
1.710952e-05 8.096540e-07 -1.937773e-07
5.663706e-13 5.002943e-14 -9.306396e-15
8.296299e-12 6.846574e-13 -1.437929e-13
1.122669e-10 8.575669e-12 -2.085048e-12
1.426329e-09 1.004024e-10 -2.789351e-11
1.649400e-08 1.061696e-09 -3.499474e-10
1.783848e-07 1.045103e-08 -3.985800e-09
1.712336e-06 9.042285e-08 -4.235669e-08
1.531685e-05 7.247856e-07 -3.978563e-07
1.104450e-14 1.495530e-13 -1.363040e-14
5.097073e-13 5.449992e-14 7.853754e-15
7.673773e-12 6.078071e-13 1.327914e-13
1.049909e-10 7.604274e-12 1.946854e-12
1.348815e-09 8.934491e-11 2.636613e-11
1.576519e-08 9.436274e-10 3.345201e-10
1.723933e-07 9.279561e-09 3.851094e-09
1.672013e-06 7.940434e-08 4.138129e-08
3.634354e-14 1.445808e-14 -8.016011e-15
5.807820e-13 4.920255e-14 3.742865e-15
8.617909e-12 6.794032e-13 6.498902e-14
1.178469e-10 8.533818e-12 9.517255e-13
1.512959e-09 1.002089e-10 1.288086e-11
1.766977e-08 1.057509e-09 1.633532e-10
1.930414e-07 1.038964e-08 1.879448e-09
1.870276e-06 8.880574e-08 2.017837e-08
5.858241e-13 4.948839e-14 -7.504369e-17
8.682571e-12 6.843298e-13 -7.840293e-18
1.187220e-10 8.598252e-12 -6.485949e-20
1.524143e-09 1.009484e-10 -4.438841e-20
1.779960e-08 1.065275e-09 -1.224196e-21
1.944486e-07 1.046534e-08 -6.648909e-20
1.883785e-06 8.944703e-08 -6.347067e-20
1.701075e-05 7.091632e-07 3.239657e-20
5.826605e-13 4.617239e-14 -4.389661e-15
8.617980e-12 6.788272e-13 -6.517898e-14
1.178469e-10 8.533800e-12 -9.517306e-13
1.512959e-09 1.002089e-10 -1.288086e-11
1.766977e-08 1.057509e-09 -1.633532e-10
1.930414e-07 1.038964e-08 -1.879448e-09
1.870276e-06 8.880574e-08 -2.017837e-08
1.689028e-05 7.041424e-07 -1.913140e-07
5.244711e-13 3.483264e-14 -8.933093e-15
7.674345e-12 6.022824e-13 -1.331444e-13
1.049910e-10 7.604015e-12 -1.946864e-12
1.348815e-09 8.934485e-11 -2.636613e-11
1.576519e-08 9.436274e-10 -3.345201e-10
1.723933e-07 9.279561e-09 -3.851094e-09
1.672013e-06 7.940434e-08 -4.138129e-08
1.511933e-05 6.304329e-07 -3.927533e-07
-3.566432e-13 -1.832274e-13 -4.608016e-13
2.047232e-13 6.407626e-15 -3.087032e-14
6.619680e-12 5.006111e-13 1.056432e-13
9.179606e-11 6.369534e-12 1.701443e-12
1.192233e-09 7.516487e-11 2.330256e-11
1.408526e-08 7.941321e-10 2.988424e-10
1.557079e-07 7.813343e-09 3.477354e-09
1.526299e-06 6.629272e-08 3.777299e-08
1.627293e-13 2.667845e-15 -2.634482e-13
4.792607e-13 3.952892e-14 -1.668665e-14
7.454361e-12 5.661872e-13 5.096692e-14
1.030423e-10 7.149363e-12 8.325507e-13
1.337320e-09 8.430086e-11 1.138450e-11
1.578684e-08 8.898980e-10 1.459308e-10
1.743569e-07 8.746992e-09 1.697046e-09
1.707274e-06 7.412826e-08 1.841881e-08
5.027753e-13 4.186288e-14 -5.386477e-15
7.511295e-12 5.708729e-13 -9.674690e-16
1.038083e-10 7.203394e-12 -2.723492e-17
1.347204e-09 8.492339e-11 -1.701607e-18
1.590282e-08 8.964278e-10 -7.572373e-19
1.756279e-07 8.810632e-09 -7.685727e-19
1.719605e-06 7.466232e-08 -1.276767e-18
1.569869e-05 5.877322e-07 6.677436e-19
5.594152e-13 5.037652e-14 -2.006013e-14
7.459547e-12 5.674277e-13 -6.056196e-14
1.030432e-10 7.149504e-12 -8.330210e-13
1.337320e-09 8.430086e-11 -1.138461e-11
1.578684e-08 8.898980e-10 -1.459308e-10
1.743569e-07 8.746992e-09 -1.697046e-09
1.707274e-06 7.412826e-08 -1.841881e-08
1.558751e-05 5.835863e-07 -1.764842e-07
6.833018e-13 6.967057e-14 -2.907968e-14
6.653411e-12 5.084829e-13 -1.222470e-13
9.180501e-11 6.370613e-12 -1.702294e-12
1.192234e-09 7.516495e-11 -2.330272e-11
1.408526e-08 7.941321e-10 -2.988424e-10
1.557079e-07 7.813343e-09 -3.477354e-09
1.526299e-06 6.629272e-08 -3.777299e-08
1.395327e-05 5.226401e-07 -3.623110e-07
3.771677e-13 -1.143943e-13 4.301362e-13
6.023482e-13 4.118473e-14 3.040274e-14
5.745001e-12 4.332277e-13 1.054358e-13
8.015391e-11 5.548251e-12 1.486120e-12
1.052108e-09 6.612583e-11 2.056210e-11
1.256171e-08 7.053542e-10 2.665025e-10
1.403573e-07 7.007166e-09 3.133826e-09
1.390297e-06 5.996065e-08 3.440580e-08
-1.000569e-13 -2.183732e-14 2.507939e-13
4.455596e-13 3.716395e-14 1.585021e-14
6.438805e-12 4.882971e-13 5.238980e-14
8.996639e-11 6.227011e-12 7.281130e-13
1.180136e-09 7.416046e-11 1.004546e-11
1.407914e-08 7.904007e-10 1.301380e-10
1.571664e-07 7.844295e-09 1.529382e-09
1.555128e-06 6.704529e-08 1.677672e-08
4.261754e-13 3.551953e-14 5.149423e-15
6.488355e-12 4.923315e-13 1.267283e-15
9.063396e-11 6.272861e-12 1.000912e-16
1.188857e-09 7.470769e-11 1.782782e-18
1.418257e-08 7.961988e-10 7.598358e-19
1.583120e-07 7.901351e-09 6.941739e-19
1.566359e-06 6.752812e-08 -3.852816e-19
1.445400e-05 5.362380e-07 -6.452175e-19
3.691556e-13 3.313431e-14 1.349535e-14
6.433964e-12 4.884404e-13 -4.438032e-14
8.996518e-11 6.226926e-12 -7.275429e-13
1.180136e-09 7.416045e-11 -1.004539e-11
1.407914e-08 7.904007e-10 -1.301380e-10
1.571664e-07 7.844295e-09 -1.529382e-09
1.555128e-06 6.704529e-08 -1.677672e-08
1.435165e-05 5.324579e-07 -1.624286e-07
1.506797e-13 1.959511e-14 1.586443e-14
5.718563e-12 4.364772e-13 -9.248799e-14
8.014650e-11 5.547968e-12 -1.485210e-12
1.052107e-09 6.612585e-11 -2.056201e-11
1.256171e-08 7.053542e-10 -2.665025e-10
1.403573e-07 7.007166e-09 -3.133826e-09
1.390297e-06 5.996065e-08 -3.440580e-08
1.284717e-05 4.768772e-07 -3.334607e-07
3.236037e-14 1.452111e-13 1.066482e-14
3.271821e-13 3.323439e-14 6.460062e-15
4.941545e-12 3.647991e-13 8.509998e-14
6.979621e-11 4.643728e-12 1.293874e-12
9.259592e-10 5.555182e-11 1.808829e-11
1.117224e-08 5.924211e-10 2.369826e-10
1.261694e-07 5.880020e-09 2.815977e-09
1.867491e-14 1.523177e-14 6.153560e-15
3.618150e-13 2.874371e-14 3.261245e-15
5.548744e-12 4.074459e-13 4.163514e-14
7.834147e-11 5.211574e-12 6.328735e-13
1.038627e-09 6.229746e-11 8.836471e-12
1.252168e-08 6.637854e-10 1.157205e-10
1.412773e-07 6.581571e-09 1.374242e-09
3.641549e-13 2.883221e-14 1.864404e-16
5.590556e-12 4.101660e-13 1.301189e-17
7.892300e-11 5.249236e-12 1.124916e-18
1.046302e-09 6.275719e-11 1.026564e-22
1.261366e-08 6.686501e-10 2.210805e-20
1.423069e-07 6.629364e-09 1.065588e-22
1.422724e-06 5.605569e-08 2.103120e-21
1.327005e-05 4.401575e-07 1.270731e-20
3.604573e-13 2.555412e-14 -1.744071e-15
5.548567e-12 4.066722e-13 -4.143973e-14
7.834146e-11 5.211513e-12 -6.327632e-13
1.038627e-09 6.229746e-11 -8.836469e-12
1.252168e-08 6.637854e-10 -1.157205e-10
1.412773e-07 6.581571e-09 -1.374242e-09
1.412525e-06 5.565594e-08 -1.523555e-08
1.317611e-05 4.370681e-07 -1.490360e-07
3.164268e-13 1.559752e-14 -3.906874e-15
4.940254e-12 3.601035e-13 -8.474984e-14
6.979603e-11 4.643383e-12 -1.293664e-12
9.259591e-10 5.555177e-11 -1.808828e-11
1.117224e-08 5.924211e-10 -2.369826e-10
1.261694e-07 5.880020e-09 -2.815977e-09
1.262832e-06 4.978576e-08 -3.124578e-08
1.179515e-05 3.915788e-07 -3.059743e-07
1.539370e-14 5.877211e-15 2.336815e-16
2.543022e-13 1.945781e-14 4.222637e-15
3.959037e-12 2.659415e-13 6.849792e-14
5.654872e-11 3.401562e-12 1.047466e-12
7.587508e-10 4.059498e-11 1.480215e-11
9.256247e-09 4.277055e-10 1.960983e-10
1.057449e-07 4.192940e-09 2.355712e-09
1.523378e-14 1.670505e-15 1.350970e-16
2.859456e-13 2.121937e-14 2.076219e-15