# vtk DataFile Version 2.0
Simplicial Mesh Example
ASCII
DATASET UNSTRUCTURED_GRID
POINTS 1302 double
0.000000e+00 1.000000e+00 5.000000e-01
-5.551115e-17 1.000000e+00 3.000000e-01
3.302130e-02 6.666667e-01 5.000000e-01
3.302130e-02 6.666667e-01 3.000000e-01
-2.000000e-01 1.000000e+00 5.000000e-01
-2.000000e-01 1.000000e+00 3.000000e-01
-1.691801e-01 6.666667e-01 5.000000e-01
-1.691801e-01 6.666667e-01 3.000000e-01
-4.000000e-01 1.000000e+00 5.000000e-01
-4.000000e-01 1.000000e+00 3.000000e-01
-3.713816e-01 6.666667e-01 5.000000e-01
-3.713816e-01 6.666667e-01 3.000000e-01
-6.000000e-01 1.000000e+00 5.000000e-01
-6.000000e-01 1.000000e+00 3.000000e-01
-5.735829e-01 6.666667e-01 5.000000e-01
-5.735829e-01 6.666667e-01 3.000000e-01
-8.000000e-01 1.000000e+00 5.000000e-01
-8.000000e-01 1.000000e+00 3.000000e-01
-7.757844e-01 6.666667e-01 5.000000e-01
-7.757844e-01 6.666667e-01 3.000000e-01
-1.000000e+00 1.000000e+00 5.000000e-01
-1.000000e+00 1.000000e+00 3.000000e-01
-9.779858e-01 6.666667e-01 5.000000e-01
-9.779858e-01 6.666667e-01 3.000000e-01
-1.200000e+00 1.000000e+00 5.000000e-01
-1.200000e+00 1.000000e+00 3.000000e-01
-1.180187e+00 6.666667e-01 5.000000e-01
-1.180187e+00 6.666667e-01 3.000000e-01
-2.000000e-01 1.000000e+00 1.000000e-01
-1.691801e-01 6.666667e-01 1.000000e-01
-4.000000e-01 1.000000e+00 1.000000e-01
-3.713816e-01 6.666667e-01 1.000000e-01
-6.000000e-01 1.000000e+00 1.000000e-01
-5.735829e-01 6.666667e-01 1.000000e-01
-8.000000e-01 1.000000e+00 1.000000e-01
-7.757844e-01 6.666667e-01 1.000000e-01
-1.000000e+00 1.000000e+00 1.000000e-01
-9.779858e-01 6.666667e-01 1.000000e-01
-1.200000e+00 1.000000e+00 1.000000e-01
-1.180187e+00 6.666667e-01 1.000000e-01
-2.000000e-01 1.000000e+00 -1.000000e-01
-1.691801e-01 6.666667e-01 -1.000000e-01
-4.000000e-01 1.000000e+00 -1.000000e-01
-3.713816e-01 6.666667e-01 -1.000000e-01
-6.000000e-01 1.000000e+00 -1.000000e-01
-5.735829e-01 6.666667e-01 -1.000000e-01
-8.000000e-01 1.000000e+00 -1.000000e-01
-7.757844e-01 6.666667e-01 -1.000000e-01
-1.000000e+00 1.000000e+00 -1.000000e-01
-9.779858e-01 6.666667e-01 -1.000000e-01
-1.200000e+00 1.000000e+00 -1.000000e-01
-1.180187e+00 6.666667e-01 -1.000000e-01
-1.400000e+00 1.000000e+00 -1.000000e-01
-1.382389e+00 6.666667e-01 -1.000000e-01
-2.000000e-01 1.000000e+00 -3.000000e-01
-1.691801e-01 6.666667e-01 -3.000000e-01
-4.000000e-01 1.000000e+00 -3.000000e-01
-3.713816e-01 6.666667e-01 -3.000000e-01
-6.000000e-01 1.000000e+00 -3.000000e-01
-5.735829e-01 6.666667e-01 -3.000000e-01
-8.000000e-01 1.000000e+00 -3.000000e-01
-7.757844e-01 6.666667e-01 -3.000000e-01
-1.000000e+00 1.000000e+00 -3.000000e-01
-9.779858e-01 6.666667e-01 -3.000000e-01
-1.200000e+00 1.000000e+00 -3.000000e-01
-1.180187e+00 6.666667e-01 -3.000000e-01
-1.400000e+00 1.000000e+00 -3.000000e-01
-1.382389e+00 6.666667e-01 -3.000000e-01
-2.000000e-01 1.000000e+00 -5.000000e-01
-1.691801e-01 6.666667e-01 -5.000000e-01
-4.000000e-01 1.000000e+00 -5.000000e-01
-3.713816e-01 6.666667e-01 -5.000000e-01
-6.000000e-01 1.000000e+00 -5.000000e-01
-5.735829e-01 6.666667e-01 -5.000000e-01
-8.000000e-01 1.000000e+00 -5.000000e-01
-7.757844e-01 6.666667e-01 -5.000000e-01
-1.000000e+00 1.000000e+00 -5.000000e-01
-9.779858e-01 6.666667e-01 -5.000000e-01
-1.200000e+00 1.000000e+00 -5.000000e-01
-1.180187e+00 6.666667e-01 -5.000000e-01
-1.400000e+00 1.000000e+00 -5.000000e-01
-1.382389e+00 6.666667e-01 -5.000000e-01
6.604260e-02 3.333333e-01 5.000000e-01
6.604260e-02 3.333333e-01 3.000000e-01
-1.383602e-01 3.333333e-01 5.000000e-01
-1.383602e-01 3.333333e-01 3.000000e-01
-3.427631e-01 3.333333e-01 5.000000e-01
-3.427631e-01 3.333333e-01 3.000000e-01
-5.471659e-01 3.333333e-01 5.000000e-01
-5.471659e-01 3.333333e-01 3.000000e-01
-7.515687e-01 3.333333e-01 5.000000e-01
-7.515687e-01 3.333333e-01 3.000000e-01
-9.559716e-01 3.333333e-01 5.000000e-01
-9.559716e-01 3.333333e-01 3.000000e-01
-1.160374e+00 3.333333e-01 5.000000e-01
-1.160374e+00 3.333333e-01 3.000000e-01
-1.383602e-01 3.333333e-01 1.000000e-01
-3.427631e-01 3.333333e-01 1.000000e-01
-5.471659e-01 3.333333e-01 1.000000e-01
-7.515687e-01 3.333333e-01 1.000000e-01
-9.559716e-01 3.333333e-01 1.000000e-01
-1.160374e+00 3.333333e-01 1.000000e-01
-1.383602e-01 3.333333e-01 -1.000000e-01
-3.427631e-01 3.333333e-01 -1.000000e-01
-5.471659e-01 3.333333e-01 -1.000000e-01
-7.515687e-01 3.333333e-01 -1.000000e-01
-9.559716e-01 3.333333e-01 -1.000000e-01
-1.160374e+00 3.333333e-01 -1.000000e-01
-1.364777e+00 3.333333e-01 -1.000000e-01
-1.383602e-01 3.333333e-01 -3.000000e-01
-3.427631e-01 3.333333e-01 -3.000000e-01
-5.471659e-01 3.333333e-01 -3.000000e-01
-7.515687e-01 3.333333e-01 -3.000000e-01
-9.559716e-01 3.333333e-01 -3.000000e-01
-1.160374e+00 3.333333e-01 -3.000000e-01
-1.364777e+00 3.333333e-01 -3.000000e-01
-1.383602e-01 3.333333e-01 -5.000000e-01
-3.427631e-01 3.333333e-01 -5.000000e-01
-5.471659e-01 3.333333e-01 -5.000000e-01
-7.515687e-01 3.333333e-01 -5.000000e-01
-9.559716e-01 3.333333e-01 -5.000000e-01
-1.160374e+00 3.333333e-01 -5.000000e-01
-1.364777e+00 3.333333e-01 -5.000000e-01
9.906390e-02 -2.775558e-17 5.000000e-01
9.906390e-02 -5.551115e-17 3.000000e-01
-1.075404e-01 0.000000e+00 5.000000e-01
-1.075404e-01 0.000000e+00 3.000000e-01
-3.141446e-01 0.000000e+00 5.000000e-01
-3.141446e-01 0.000000e+00 3.000000e-01
-5.207489e-01 0.000000e+00 5.000000e-01
-5.207489e-01 0.000000e+00 3.000000e-01
-7.273532e-01 -5.551115e-17 5.000000e-01
-7.273532e-01 0.000000e+00 3.000000e-01
-9.339574e-01 0.000000e+00 5.000000e-01
-9.339574e-01 0.000000e+00 3.000000e-01
-1.140562e+00 0.000000e+00 5.000000e-01
-1.140562e+00 0.000000e+00 3.000000e-01
-1.075404e-01 -2.775558e-17 1.000000e-01
-3.141446e-01 0.000000e+00 1.000000e-01
-5.207489e-01 -2.775558e-17 1.000000e-01
-7.273532e-01 0.000000e+00 1.000000e-01
-9.339574e-01 0.000000e+00 1.000000e-01
-1.140562e+00 -2.775558e-17 1.000000e-01
-1.075404e-01 0.000000e+00 -1.000000e-01
-3.141446e-01 0.000000e+00 -1.000000e-01
-5.207489e-01 -2.775558e-17 -1.000000e-01
-7.273532e-01 0.000000e+00 -1.000000e-01
-9.339574e-01 0.000000e+00 -1.000000e-01
-1.140562e+00 -2.775558e-17 -1.000000e-01
-1.347166e+00 0.000000e+00 -1.000000e-01
-1.075404e-01 -2.775558e-17 -3.000000e-01
-3.141446e-01 0.000000e+00 -3.000000e-01
-5.207489e-01 0.000000e+00 -3.000000e-01
-7.273532e-01 -2.775558e-17 -3.000000e-01
-9.339574e-01 -2.775558e-17 -3.000000e-01
-1.140562e+00 -2.775558e-17 -3.000000e-01
-1.347166e+00 -5.551115e-17 -3.000000e-01
-1.075404e-01 0.000000e+00 -5.000000e-01
-3.141446e-01 0.000000e+00 -5.000000e-01
-5.207489e-01 0.000000e+00 -5.000000e-01
-7.273532e-01 0.000000e+00 -5.000000e-01
-9.339574e-01 0.000000e+00 -5.000000e-01
-1.140562e+00 0.000000e+00 -5.000000e-01
-1.347166e+00 -5.551115e-17 -5.000000e-01
1.320852e-01 -3.333333e-01 5.000000e-01
1.320852e-01 -3.333333e-01 3.000000e-01
-7.672048e-02 -3.333333e-01 5.000000e-01
-7.672048e-02 -3.333333e-01 3.000000e-01
-2.855262e-01 -3.333333e-01 5.000000e-01
-2.855262e-01 -3.333333e-01 3.000000e-01
-4.943318e-01 -3.333333e-01 5.000000e-01
-4.943318e-01 -3.333333e-01 3.000000e-01
-7.031375e-01 -3.333333e-01 5.000000e-01
-7.031375e-01 -3.333333e-01 3.000000e-01
-9.119432e-01 -3.333333e-01 5.000000e-01
-9.119432e-01 -3.333333e-01 3.000000e-01
-7.672048e-02 -3.333333e-01 1.000000e-01
-2.855262e-01 -3.333333e-01 1.000000e-01
-4.943318e-01 -3.333333e-01 1.000000e-01
-7.031375e-01 -3.333333e-01 1.000000e-01
-9.119432e-01 -3.333333e-01 1.000000e-01
-7.672048e-02 -3.333333e-01 -1.000000e-01
-2.855262e-01 -3.333333e-01 -1.000000e-01
-4.943318e-01 -3.333333e-01 -1.000000e-01
-7.031375e-01 -3.333333e-01 -1.000000e-01
-9.119432e-01 -3.333333e-01 -1.000000e-01
-1.120749e+00 -3.333333e-01 -1.000000e-01
-1.329555e+00 -3.333333e-01 -1.000000e-01
-7.672048e-02 -3.333333e-01 -3.000000e-01
-2.855262e-01 -3.333333e-01 -3.000000e-01
-4.943318e-01 -3.333333e-01 -3.000000e-01
-7.031375e-01 -3.333333e-01 -3.000000e-01
-9.119432e-01 -3.333333e-01 -3.000000e-01
-1.120749e+00 -3.333333e-01 -3.000000e-01
-1.329555e+00 -3.333333e-01 -3.000000e-01
-7.672048e-02 -3.333333e-01 -5.000000e-01
-2.855262e-01 -3.333333e-01 -5.000000e-01
-4.943318e-01 -3.333333e-01 -5.000000e-01
-7.031375e-01 -3.333333e-01 -5.000000e-01
-9.119432e-01 -3.333333e-01 -5.000000e-01
-1.120749e+00 -3.333333e-01 -5.000000e-01
-1.329555e+00 -3.333333e-01 -5.000000e-01
1.651065e-01 -6.666667e-01 5.000000e-01
1.651065e-01 -6.666667e-01 3.000000e-01
-4.590059e-02 -6.666667e-01 5.000000e-01
-4.590059e-02 -6.666667e-01 3.000000e-01
-2.569077e-01 -6.666667e-01 5.000000e-01
-2.569077e-01 -6.666667e-01 3.000000e-01
-4.679148e-01 -6.666667e-01 5.000000e-01
-4.679148e-01 -6.666667e-01 3.000000e-01
-6.789219e-01 -6.666667e-01 5.000000e-01
-6.789219e-01 -6.666667e-01 3.000000e-01
-8.899290e-01 -6.666667e-01 5.000000e-01
-8.899290e-01 -6.666667e-01 3.000000e-01
-4.590059e-02 -6.666667e-01 1.000000e-01
-2.569077e-01 -6.666667e-01 1.000000e-01
-4.679148e-01 -6.666667e-01 1.000000e-01
-6.789219e-01 -6.666667e-01 1.000000e-01
-8.899290e-01 -6.666667e-01 1.000000e-01
-4.590059e-02 -6.666667e-01 -1.000000e-01
-2.569077e-01 -6.666667e-01 -1.000000e-01
-4.679148e-01 -6.666667e-01 -1.000000e-01
-6.789219e-01 -6.666667e-01 -1.000000e-01
-8.899290e-01 -6.666667e-01 -1.000000e-01
-1.100936e+00 -6.666667e-01 -1.000000e-01
-1.311943e+00 -6.666667e-01 -1.000000e-01
-4.590059e-02 -6.666667e-01 -3.000000e-01
-2.569077e-01 -6.666667e-01 -3.000000e-01
-4.679148e-01 -6.666667e-01 -3.000000e-01
-6.789219e-01 -6.666667e-01 -3.000000e-01
-8.899290e-01 -6.666667e-01 -3.000000e-01
-1.100936e+00 -6.666667e-01 -3.000000e-01
-1.311943e+00 -6.666667e-01 -3.000000e-01
-4.590059e-02 -6.666667e-01 -5.000000e-01
-2.569077e-01 -6.666667e-01 -5.000000e-01
-4.679148e-01 -6.666667e-01 -5.000000e-01
-6.789219e-01 -6.666667e-01 -5.000000e-01
-8.899290e-01 -6.666667e-01 -5.000000e-01
-1.100936e+00 -6.666667e-01 -5.000000e-01
-1.311943e+00 -6.666667e-01 -5.000000e-01
1.981278e-01 -1.000000e+00 5.000000e-01
1.981278e-01 -1.000000e+00 3.000000e-01
[...]
CELL_DATA 900
SCALARS Density double 1
LOOKUP_TABLE default
1.000000e+00
1.000000e+00
1.000000e+00
1.000000e+00
1.000000e+00
1.000000e+00
1.000000e+00
1.000002e+00
1.000000e+00
1.000000e+00
1.000000e+00
1.000000e+00
1.000000e+00
1.000000e+00
1.000000e+00
1.000002e+00
1.000000e+00
1.000000e+00
1.000000e+00
1.000000e+00
1.000000e+00
1.000000e+00
1.000002e+00
1.000014e+00
1.000000e+00
1.000000e+00
1.000000e+00
1.000000e+00
1.000000e+00
1.000000e+00
1.000002e+00
1.000014e+00
1.000000e+00
1.000000e+00
1.000000e+00
1.000000e+00
1.000000e+00
1.000000e+00
1.000002e+00
1.000012e+00
1.000000e+00
1.000000e+00
1.000000e+00
1.000000e+00
1.000000e+00
1.000000e+00
1.000000e+00
1.000002e+00
1.000000e+00
1.000000e+00
1.000000e+00
1.000000e+00
1.000000e+00
1.000000e+00
1.000000e+00
1.000002e+00
1.000000e+00
1.000000e+00
1.000000e+00
1.000000e+00
1.000000e+00
1.000000e+00
1.000002e+00
1.000014e+00
1.000000e+00
1.000000e+00
1.000000e+00
1.000000e+00
1.000000e+00
1.000000e+00
1.000002e+00
1.000014e+00
1.000000e+00
1.000000e+00
1.000000e+00
1.000000e+00
1.000000e+00
1.000000e+00
1.000002e+00
1.000012e+00
1.000000e+00
1.000000e+00
1.000000e+00
1.000000e+00
1.000000e+00
1.000000e+00
1.000000e+00
1.000002e+00
1.000000e+00
1.000000e+00
1.000000e+00
1.000000e+00
1.000000e+00
1.000000e+00
1.000000e+00
1.000002e+00
1.000000e+00
1.000000e+00
1.000000e+00
1.000000e+00
1.000000e+00
1.000000e+00
1.000002e+00
1.000013e+00
1.000000e+00
1.000000e+00
1.000000e+00
1.000000e+00
1.000000e+00
1.000000e+00
1.000002e+00
1.000013e+00
1.000000e+00
1.000000e+00
1.000000e+00
1.000000e+00
1.000000e+00
1.000000e+00
1.000002e+00
1.000011e+00
1.000000e+00
1.000000e+00
1.000000e+00
1.000000e+00
1.000000e+00
1.000000e+00
1.000000e+00
1.000001e+00
1.000000e+00
1.000000e+00
1.000000e+00
1.000000e+00
1.000000e+00
1.000000e+00
1.000000e+00
1.000002e+00
1.000000e+00
1.000000e+00
1.000000e+00
1.000000e+00
1.000000e+00
1.000000e+00
1.000002e+00
1.000012e+00
1.000000e+00
1.000000e+00
1.000000e+00
1.000000e+00
1.000000e+00
1.000000e+00
1.000002e+00
1.000012e+00
1.000000e+00
1.000000e+00
1.000000e+00
1.000000e+00
1.000000e+00
1.000000e+00
1.000001e+00
1.000010e+00
1.000000e+00
1.000000e+00
1.000000e+00
1.000000e+00
1.000000e+00
1.000000e+00
1.000000e+00
1.000000e+00
1.000000e+00
1.000000e+00
1.000000e+00
1.000000e+00
1.000000e+00
1.000000e+00
1.000000e+00
1.000000e+00
1.000000e+00
1.000000e+00
1.000000e+00
1.000000e+00
1.000001e+00
1.000011e+00
1.000000e+00
1.000000e+00
1.000000e+00
1.000000e+00
1.000000e+00
1.000000e+00
1.000001e+00
1.000011e+00
1.000000e+00
1.000000e+00
1.000000e+00
1.000000e+00
1.000000e+00
1.000000e+00
1.000001e+00
1.000009e+00
1.000000e+00
1.000000e+00
1.000000e+00
1.000000e+00
1.000000e+00
1.000000e+00
1.000000e+00
1.000000e+00
1.000000e+00
1.000000e+00
1.000000e+00
1.000000e+00
1.000000e+00
1.000000e+00
1.000000e+00
1.000000e+00
1.000000e+00
1.000000e+00
1.000000e+00
1.000000e+00
1.000001e+00
1.000009e+00
1.000000e+00
1.000000e+00
1.000000e+00
1.000000e+00
1.000000e+00
1.000000e+00
1.000001e+00
1.000009e+00
1.000000e+00
1.000000e+00
1.000000e+00
1.000000e+00
1.000000e+00
1.000000e+00
1.000001e+00
1.000008e+00
1.000012e+00
1.000082e+00
1.000467e+00
1.002392e+00
1.009807e+00
1.033058e+00
1.083585e+00
1.132447e+00
1.000014e+00
1.000093e+00
1.000525e+00
1.002681e+00
1.010929e+00
1.036436e+00
1.090530e+00
1.138724e+00
1.000094e+00
1.000530e+00
1.002705e+00
1.011018e+00
1.036696e+00
1.091014e+00
1.139007e+00
1.000093e+00
1.000525e+00
1.002681e+00
1.010929e+00
1.036436e+00
1.090530e+00
1.138724e+00
1.000082e+00
1.000467e+00
1.002392e+00
1.009807e+00
1.033058e+00
1.083585e+00
1.132447e+00
1.000012e+00
1.000083e+00
1.000475e+00
1.002457e+00
1.010151e+00
1.034446e+00
1.087089e+00
1.136478e+00
1.000014e+00
1.000093e+00
1.000534e+00
1.002755e+00
1.011317e+00
1.037983e+00
1.094372e+00
1.143044e+00
1.000094e+00
1.000539e+00
1.002779e+00
1.011410e+00
1.038257e+00
1.094880e+00
1.143337e+00
1.000093e+00
1.000534e+00
1.002755e+00
1.011317e+00
1.037983e+00
1.094372e+00
1.143044e+00
1.000083e+00
1.000475e+00
1.002457e+00
1.010151e+00
1.034446e+00
1.087089e+00
1.136478e+00
1.000011e+00
1.000077e+00
1.000448e+00
1.002347e+00
1.009799e+00
1.033663e+00
1.085976e+00
1.136163e+00
1.000013e+00
1.000087e+00
1.000505e+00
1.002632e+00
1.010924e+00
1.037124e+00
1.093186e+00
1.142745e+00
1.000088e+00
1.000509e+00
1.002655e+00
1.011014e+00
1.037392e+00
1.093692e+00
1.143044e+00
1.000087e+00
1.000505e+00
1.002632e+00
1.010924e+00
1.037124e+00
1.093186e+00
1.142745e+00
1.000077e+00
1.000448e+00
1.002347e+00
1.009799e+00
1.033663e+00
1.085976e+00
1.136163e+00
1.000010e+00
1.000072e+00
1.000422e+00
1.002233e+00
1.009417e+00
1.032754e+00
1.084549e+00
1.135546e+00
1.000012e+00
1.000081e+00
1.000475e+00
1.002503e+00
1.010499e+00
1.036125e+00
1.091654e+00
1.142123e+00
1.000082e+00
1.000479e+00
1.002525e+00
1.010585e+00
1.036386e+00
1.092154e+00
1.142427e+00
1.000081e+00
1.000475e+00
1.002503e+00
1.010499e+00
1.036125e+00
1.091654e+00
1.142123e+00
1.000072e+00
1.000422e+00
1.002233e+00
1.009417e+00
1.032754e+00
1.084549e+00
1.135546e+00
1.000001e+00
1.000009e+00
1.000067e+00
1.000395e+00
1.002113e+00
1.009005e+00
1.031720e+00
1.082805e+00
1.134613e+00
1.000001e+00
1.000011e+00
1.000075e+00
1.000444e+00
1.002369e+00
1.010039e+00
1.034984e+00
1.089773e+00
1.141164e+00
1.000076e+00
1.000448e+00
1.002390e+00
1.010122e+00
1.035238e+00
1.090266e+00
1.141471e+00
1.000075e+00
1.000444e+00
1.002369e+00
1.010039e+00
1.034984e+00
1.089773e+00
1.141164e+00
1.000067e+00
1.000395e+00
1.002113e+00
1.009005e+00
1.031720e+00
1.082805e+00
1.134613e+00
1.000001e+00
1.000008e+00
1.000057e+00
1.000342e+00
1.001859e+00
1.008027e+00
1.028819e+00
1.076876e+00
1.129447e+00
1.000001e+00
1.000009e+00
1.000065e+00
1.000385e+00
1.002083e+00
1.008945e+00
1.031774e+00
1.083332e+00
1.135703e+00
1.000065e+00
1.000389e+00
1.002102e+00
1.009019e+00
1.032004e+00
1.083792e+00
1.136007e+00
1.000065e+00
1.000385e+00
1.002083e+00
1.008945e+00
1.031774e+00
1.083332e+00
1.135703e+00
1.000057e+00
1.000342e+00
1.001859e+00
1.008027e+00
1.028819e+00
1.076876e+00
1.129447e+00
1.000000e+00
1.000000e+00
1.000000e+00
1.000000e+00
1.000000e+00
1.000000e+00
1.000000e+00
1.000000e+00
1.000000e+00
1.000000e+00
1.000000e+00
1.000000e+00
1.000000e+00
1.000000e+00
1.000000e+00
1.000000e+00
1.000000e+00
1.000000e+00
1.000000e+00
1.000000e+00
1.000000e+00
1.000000e+00
1.000000e+00
1.000000e+00
1.000000e+00
1.000000e+00
1.000000e+00
1.000000e+00
1.000000e+00
1.000000e+00
1.000000e+00
1.000000e+00
1.000000e+00
1.000000e+00
1.000000e+00
1.000000e+00
1.000000e+00
1.000000e+00
1.000000e+00
1.000000e+00
1.000000e+00
1.000000e+00
1.000000e+00
1.000000e+00
1.000000e+00
1.000000e+00
1.000000e+00
1.000000e+00
1.000000e+00
1.000000e+00
1.000000e+00
1.000000e+00
1.000000e+00
1.000000e+00
1.000000e+00
1.000000e+00
1.000000e+00
1.000000e+00
1.000000e+00
1.000000e+00
1.000000e+00
1.000000e+00
1.000000e+00
1.000000e+00
1.000000e+00
1.000000e+00
1.000000e+00
1.000000e+00
1.000000e+00
1.000000e+00
1.000000e+00
1.000000e+00
1.000000e+00
1.000000e+00
1.000000e+00
1.000000e+00
1.000000e+00
1.000000e+00
1.000000e+00
1.000000e+00
1.000000e+00
1.000000e+00
1.000000e+00
1.000000e+00
1.000000e+00
1.000000e+00
1.000000e+00
1.000000e+00
1.000000e+00
1.000000e+00
1.000000e+00
1.000000e+00
1.000000e+00
1.000000e+00
1.000000e+00
1.000000e+00
1.000000e+00
1.000000e+00
1.000000e+00
1.000000e+00
1.000000e+00
1.000000e+00
1.000000e+00
1.000000e+00
1.000000e+00
1.000000e+00
1.000000e+00
1.000000e+00
1.000000e+00
1.000000e+00
1.000000e+00
1.000000e+00
1.000000e+00
1.000000e+00
1.000000e+00
1.000000e+00
1.000000e+00
1.000000e+00
1.000000e+00
1.000000e+00
1.000000e+00
1.000000e+00
1.000000e+00
1.000000e+00
1.000000e+00
1.000000e+00
1.000000e+00
1.000000e+00
1.000000e+00
1.000000e+00
1.000000e+00
1.000000e+00
1.000000e+00
1.000000e+00
1.000000e+00
1.000000e+00
1.000000e+00
1.000000e+00
1.000000e+00
1.000000e+00
1.000000e+00
1.000000e+00
1.000000e+00
1.000000e+00
1.000000e+00
1.000000e+00
1.000000e+00
1.000000e+00
1.000000e+00
1.000000e+00
1.000000e+00
1.000000e+00
1.000000e+00
1.000000e+00
1.000000e+00
1.000000e+00
1.000000e+00
1.000000e+00
1.000000e+00
1.000000e+00
1.000000e+00
1.000000e+00
1.000000e+00
1.000000e+00
1.000000e+00
1.000000e+00
1.000000e+00
1.000000e+00
1.000000e+00
1.000000e+00
1.000000e+00
1.000000e+00
1.000000e+00
1.000000e+00
1.000000e+00
1.000000e+00
1.000000e+00
1.000000e+00
1.000000e+00
1.000000e+00
1.000000e+00
1.000000e+00
1.000000e+00
1.000000e+00
1.000000e+00
1.000000e+00
1.000000e+00
1.000000e+00
1.000000e+00
1.000000e+00
1.000000e+00
1.000000e+00
1.000000e+00
1.000000e+00
1.000000e+00
1.000000e+00
1.000000e+00
1.000000e+00
1.000000e+00
1.000000e+00
1.000000e+00
1.000000e+00
1.000000e+00
1.000000e+00
1.000000e+00
1.000000e+00
1.000000e+00
1.000000e+00
1.000000e+00
1.000000e+00
1.000000e+00
1.000000e+00
1.000000e+00
1.000000e+00
1.000000e+00
1.000000e+00
1.000000e+00
1.000000e+00
1.000000e+00
1.000000e+00
1.000000e+00
1.000000e+00
1.000000e+00
1.000000e+00
1.000000e+00
1.000000e+00
1.000000e+00
1.000000e+00
1.000000e+00
1.000000e+00
1.000000e+00
1.000000e+00
1.000000e+00
1.000000e+00
1.000000e+00
1.000000e+00
1.000000e+00
1.000000e+00
1.000000e+00
1.000000e+00
1.000000e+00
1.000000e+00
1.000000e+00
1.000000e+00
1.000000e+00
1.000000e+00
1.000000e+00
1.000000e+00
1.000000e+00
1.000000e+00
1.000000e+00
1.000000e+00
1.000000e+00
1.000000e+00
1.000000e+00
1.000000e+00
1.000000e+00
1.000000e+00
1.000000e+00
1.000000e+00
1.000000e+00
1.000000e+00
1.000000e+00
1.000000e+00
1.000000e+00
1.000000e+00
1.000000e+00
1.000000e+00
1.000000e+00
1.000000e+00
1.000000e+00
1.000000e+00
1.000000e+00
1.000000e+00
1.000000e+00
1.000000e+00
1.000000e+00
1.000000e+00
1.000000e+00
1.000000e+00
1.000000e+00
1.000000e+00
1.000000e+00
1.000000e+00
1.000000e+00
1.000000e+00
1.000000e+00
1.000000e+00
1.000000e+00
1.000000e+00
1.000000e+00
1.000000e+00
1.000000e+00
1.000000e+00
1.000000e+00
1.000000e+00
1.000000e+00
1.000000e+00
1.000000e+00
1.000000e+00
1.000000e+00
1.000000e+00
1.000000e+00
1.000000e+00
1.000000e+00
1.000000e+00
1.000000e+00
1.000000e+00
1.000000e+00
1.000000e+00
1.000000e+00
1.000000e+00
1.000000e+00
1.000000e+00
1.000000e+00
1.000000e+00
1.000000e+00
1.000000e+00
1.000000e+00
1.000000e+00
1.000000e+00
1.000000e+00
1.000000e+00
1.000000e+00
1.000000e+00
1.000000e+00
1.000000e+00
1.000000e+00
1.000000e+00
1.000000e+00
1.000000e+00
1.000000e+00
1.000000e+00
1.000000e+00
1.000000e+00
1.000000e+00
1.000000e+00
1.000000e+00
1.000000e+00
1.000000e+00
1.000000e+00
1.000000e+00
1.000000e+00
1.000000e+00
1.000000e+00
1.000000e+00
1.000000e+00
1.000000e+00
1.000000e+00
1.000000e+00
1.000000e+00
1.000000e+00
1.000000e+00
1.000000e+00
1.000000e+00
1.000000e+00
1.000000e+00
1.000000e+00
1.000000e+00
1.000000e+00
1.000000e+00
1.000000e+00
1.000000e+00
1.000000e+00
1.000000e+00
1.000000e+00
1.000000e+00
1.000000e+00
1.000000e+00
1.000000e+00
1.000000e+00
1.000000e+00
1.000000e+00
1.000000e+00
1.000000e+00
1.000000e+00
1.000000e+00
1.000000e+00
1.000000e+00
1.000000e+00
1.000000e+00
1.000000e+00
1.000000e+00
1.000000e+00
1.000000e+00
1.000000e+00
1.000000e+00
1.000000e+00
1.000000e+00
1.000000e+00
1.000000e+00
1.000000e+00
1.000000e+00
1.000000e+00
1.000000e+00
1.000000e+00
1.000000e+00
1.000000e+00
1.000000e+00
1.000000e+00
1.000000e+00
1.000000e+00
1.000000e+00
1.000000e+00
1.000000e+00
1.000000e+00
1.000000e+00
1.000000e+00
1.000000e+00
1.000000e+00
1.000000e+00
1.000000e+00
1.000000e+00
1.000000e+00
1.000000e+00
1.000000e+00
1.000000e+00
1.000000e+00
1.000000e+00
1.000000e+00
1.000000e+00
1.000000e+00
1.000000e+00
1.000000e+00
1.000000e+00
1.000000e+00
1.000000e+00
1.000000e+00
1.000000e+00
1.000000e+00
1.000000e+00
1.000000e+00
1.000000e+00
1.000000e+00
1.000000e+00
1.000000e+00
1.000000e+00
1.000000e+00
VECTORS Momentum double
5.273664e-13 6.762770e-14 -1.389943e-15
6.967091e-12 6.171745e-13 1.554398e-13
8.561599e-11 7.069235e-12 2.017348e-12
9.741024e-10 7.459829e-11 2.452013e-11
1.039762e-08 7.358703e-10 2.756733e-10
1.012210e-07 6.579402e-09 2.903143e-09
9.198011e-07 5.468780e-08 2.781259e-08
7.448032e-06 4.024309e-07 2.481153e-07
6.107615e-13 6.219700e-14 -1.609319e-15
7.971848e-12 7.058362e-13 7.775354e-14
9.781133e-11 8.075105e-12 1.013164e-12
1.111982e-09 8.515027e-11 1.231771e-11
1.185890e-08 8.392507e-10 1.384677e-10
1.153303e-07 7.496258e-09 1.457811e-09
1.046802e-06 6.223805e-08 1.396147e-08
8.465285e-06 4.574131e-07 1.244854e-07
8.051686e-12 7.129572e-13 -2.028097e-16
9.878202e-11 8.156005e-12 -4.187489e-18
1.122963e-09 8.599213e-11 -4.458314e-20
1.197525e-08 8.474846e-10 -2.188845e-20
1.164536e-07 7.569322e-09 7.321588e-22
1.056903e-06 6.283944e-08 4.370924e-20
8.546113e-06 4.617910e-07 1.062770e-21
6.409628e-05 3.131690e-06 -2.019147e-21
7.974171e-12 7.058434e-13 -7.857217e-14
9.781155e-11 8.075080e-12 -1.013396e-12
1.111982e-09 8.515027e-11 -1.231772e-11
1.185890e-08 8.392507e-10 -1.384677e-10
1.153303e-07 7.496258e-09 -1.457811e-09
1.046802e-06 6.223805e-08 -1.396147e-08
8.465285e-06 4.574131e-07 -1.244854e-07
6.349850e-05 3.102365e-06 -9.851314e-07
6.979649e-12 6.173315e-13 -1.564769e-13
8.561672e-11 7.068516e-12 -2.017784e-12
9.741026e-10 7.459830e-11 -2.452016e-11
1.039762e-08 7.358703e-10 -2.756733e-10
1.012210e-07 6.579402e-09 -2.903143e-09
9.198011e-07 5.468780e-08 -2.781259e-08
7.448032e-06 4.024309e-07 -2.481153e-07
5.595495e-05 2.733461e-06 -1.964713e-06
4.558069e-13 3.244438e-13 -3.325090e-14
6.436466e-12 5.691874e-13 1.423594e-13
8.022902e-11 6.248456e-12 1.888005e-12
9.228498e-10 6.595047e-11 2.321966e-11
9.960978e-09 6.512281e-10 2.639774e-10
9.801033e-08 5.794853e-09 2.811243e-09
9.004939e-07 4.792819e-08 2.722175e-08
7.367171e-06 3.468112e-07 2.455516e-07
5.654506e-13 8.473673e-14 -2.293161e-14
7.382497e-12 6.194743e-13 7.121537e-14
9.165779e-11 7.128539e-12 9.488707e-13
1.053509e-09 7.527767e-11 1.166563e-11
1.136137e-08 7.426822e-10 1.325985e-10
1.116780e-07 6.601895e-09 1.411768e-09
1.024897e-06 5.453942e-08 1.366614e-08
8.374112e-06 3.941293e-07 1.232131e-07
7.461156e-12 6.248155e-13 -5.759352e-16
9.256846e-11 7.198491e-12 -7.178791e-17
1.063916e-09 7.602221e-11 -2.952929e-18
1.147291e-08 7.499688e-10 -1.977989e-19
1.127666e-07 6.666217e-09 -4.635839e-20
1.034798e-06 5.506602e-08 -6.477466e-20
8.454175e-06 3.978965e-07 -6.430816e-20
6.409816e-05 2.655237e-06 6.655804e-21
7.392381e-12 6.082072e-13 -7.392028e-14
9.165834e-11 7.125566e-12 -9.499909e-13
1.053509e-09 7.527747e-11 -1.166566e-11
1.136137e-08 7.426822e-10 -1.325985e-10
1.116780e-07 6.601895e-09 -1.411768e-09
1.024897e-06 5.453942e-08 -1.366614e-08
8.374112e-06 3.941293e-07 -1.232131e-07
6.349934e-05 2.630434e-06 -9.852619e-07
6.484362e-12 5.170637e-13 -1.463639e-13
8.023142e-11 6.231505e-12 -1.890027e-12
9.228508e-10 6.594930e-11 -2.321972e-11
9.960978e-09 6.512278e-10 -2.639774e-10
9.801033e-08 5.794853e-09 -2.811243e-09
9.004939e-07 4.792819e-08 -2.722175e-08
7.367171e-06 3.468112e-07 -2.455516e-07
5.594920e-05 2.318232e-06 -1.964688e-06
-1.106919e-13 -3.042163e-13 -8.473452e-13
5.086194e-12 3.788765e-13 2.407245e-14
6.948158e-11 5.121676e-12 1.609620e-12
8.084330e-10 5.435817e-11 2.033676e-11
8.821773e-09 5.375504e-10 2.337148e-10
8.773891e-08 4.764372e-09 2.516170e-09
8.149746e-07 3.924020e-08 2.462674e-08
6.738744e-06 2.793657e-07 2.245738e-07
7.384987e-13 2.997696e-14 -5.145335e-13
6.278090e-12 5.034226e-13 7.576631e-15
7.943262e-11 5.862794e-12 8.064337e-13
9.229054e-10 6.204498e-11 1.021867e-11
1.006198e-08 6.129808e-10 1.173974e-10
9.997381e-08 5.427122e-09 1.263583e-09
9.275585e-07 4.464400e-08 1.236333e-08
7.659730e-06 3.173836e-07 1.126864e-07
6.404161e-12 5.155081e-13 -2.064663e-14
8.022535e-11 5.922312e-12 -5.057741e-15
9.320239e-10 6.265862e-11 -3.461394e-16
1.016076e-08 6.189899e-10 -3.867736e-17
1.009483e-07 5.479918e-09 -1.242430e-18
9.365186e-07 4.507407e-08 -1.007943e-18
7.732962e-06 3.204066e-07 -1.672726e-18
5.927591e-05 2.104400e-06 -7.345121e-19
6.478607e-12 5.341489e-13 -1.080442e-13
7.945225e-11 5.867921e-12 -8.364673e-13
9.229102e-10 6.204564e-11 -1.022084e-11
1.006198e-08 6.129809e-10 -1.173979e-10
9.997381e-08 5.427122e-09 -1.263583e-09
9.275585e-07 4.464400e-08 -1.236333e-08
7.659730e-06 3.173836e-07 -1.126864e-07
5.872216e-05 2.084851e-06 -9.106386e-07
5.997808e-12 5.155383e-13 -1.761260e-13
6.957204e-11 5.145013e-12 -1.657513e-12
8.084606e-10 5.436188e-11 -2.034028e-11
8.821775e-09 5.375507e-10 -2.337156e-10
8.773891e-08 4.764372e-09 -2.516170e-09
8.149746e-07 3.924020e-08 -2.462674e-08
6.738744e-06 2.793657e-07 -2.245738e-07
5.174062e-05 1.838266e-06 -1.815895e-06
8.322404e-13 -2.193077e-13 8.029569e-13
5.162328e-12 3.889791e-13 1.798036e-13
6.014221e-11 4.413674e-12 1.435144e-12
7.063934e-10 4.725190e-11 1.777009e-11
7.790777e-09 4.717273e-10 2.063594e-10
7.830712e-08 4.217698e-09 2.245410e-09
7.351898e-07 3.504200e-08 2.220880e-08
6.142909e-06 2.511864e-07 2.046914e-07
1.490662e-13 -2.612836e-14 4.919216e-13
5.471952e-12 4.385871e-13 9.330145e-14
6.866976e-11 5.047401e-12 7.233740e-13
8.063885e-10 5.393085e-11 8.929995e-12
8.885966e-09 5.379071e-10 1.036559e-10
8.922587e-08 4.804237e-09 1.127603e-09
8.367410e-07 3.986571e-08 1.114933e-08
6.982335e-06 2.853477e-07 1.027083e-07
5.462886e-12 4.384943e-13 1.855666e-14
6.935249e-11 5.098536e-12 5.504747e-15
8.143520e-10 5.446194e-11 4.204742e-16
8.973197e-09 5.431781e-10 9.364761e-17
9.009549e-08 4.850955e-09 1.044137e-18
8.448229e-07 4.024956e-08 7.964475e-19
7.049080e-06 2.880635e-07 -4.796290e-19
5.461753e-05 1.904944e-06 -9.669459e-19
5.281244e-12 4.331912e-13 -9.799737e-15
6.865241e-11 5.048938e-12 -6.983768e-13
8.063833e-10 5.393063e-11 -8.927601e-12
8.885966e-09 5.379071e-10 -1.036557e-10
8.922587e-08 4.804237e-09 -1.127603e-09
8.367410e-07 3.986571e-08 -1.114933e-08
6.982335e-06 2.853477e-07 -1.027083e-07
5.410739e-05 1.887269e-06 -8.386374e-07
4.301322e-12 3.666037e-13 -5.609257e-14
6.006841e-11 4.424933e-12 -1.397864e-12
7.063705e-10 4.725141e-11 -1.776630e-11
7.790775e-09 4.717275e-10 -2.063591e-10
7.830712e-08 4.217698e-09 -2.245410e-09
7.351898e-07 3.504200e-08 -2.220880e-08
6.142909e-06 2.511864e-07 -2.046914e-07
4.767566e-05 1.664245e-06 -1.672352e-06
3.197413e-13 2.961530e-13 3.885589e-14
4.052382e-12 3.318789e-13 9.517861e-14
5.175103e-11 3.631407e-12 1.217796e-12
6.145868e-10 3.880419e-11 1.545671e-11
6.850969e-09 3.875003e-10 1.813928e-10
6.958881e-08 3.445474e-09 1.994843e-09
6.603628e-07 2.842193e-08 1.993774e-08
3.283175e-13 6.275453e-14 2.258206e-14
4.614568e-12 3.531090e-13 4.814530e-14
5.911955e-11 4.140410e-12 6.117032e-13
7.015854e-10 4.428404e-11 7.765556e-12
7.813927e-09 4.418079e-10 9.111283e-11
7.929042e-08 3.923909e-09 1.001754e-09
7.515606e-07 3.232594e-08 1.000900e-08
4.658492e-12 3.557240e-13 1.113148e-15
5.970657e-11 4.180557e-12 1.678049e-16
7.085138e-10 4.471963e-11 1.120639e-17
7.890620e-09 4.461325e-10 3.960175e-19
8.006306e-08 3.961997e-09 6.565675e-20
7.588179e-07 3.263633e-08 1.341889e-22
6.397718e-06 2.285016e-07 2.419008e-21
5.010684e-05 1.473323e-06 -8.504127e-21
4.606648e-12 3.414068e-13 -4.190140e-14
5.911850e-11 4.137030e-12 -6.104253e-13
7.015853e-10 4.428378e-11 -7.765263e-12
7.813927e-09 4.418078e-10 -9.111278e-11
7.929042e-08 3.923909e-09 -1.001754e-09
7.515606e-07 3.232594e-08 -1.000900e-08
6.337159e-06 2.263568e-07 -9.318749e-08
4.963901e-05 1.459755e-06 -7.687608e-07
4.015826e-12 2.817915e-13 -8.536533e-14
5.174561e-11 3.616763e-12 -1.215668e-12
6.145857e-10 3.880273e-11 -1.545617e-11
6.850969e-09 3.875001e-10 -1.813927e-10
6.958881e-08 3.445474e-09 -1.994843e-09
6.603628e-07 2.842193e-08 -1.993774e-08
5.575467e-06 1.993403e-07 -1.857218e-07
4.374018e-05 1.288102e-06 -1.533061e-06
2.313909e-13 2.909244e-14 1.146419e-14
3.161412e-12 2.191036e-13 7.138266e-14
4.096148e-11 2.531345e-12 9.621460e-13
4.919274e-10 2.687021e-11 1.235331e-11
5.547087e-09 2.656020e-10 1.466106e-10
5.697851e-08 2.302406e-09 1.630803e-09
5.470804e-07 1.845910e-08 1.648014e-08
2.594284e-13 2.031998e-14 6.500449e-15
3.610119e-12 2.476771e-13 3.612467e-14