# vtk DataFile Version 2.0
Simplicial Mesh Example
ASCII
DATASET UNSTRUCTURED_GRID
POINTS 1302 double
0.000000e+00 1.000000e+00 5.000000e-01
-5.551115e-17 1.000000e+00 3.000000e-01
3.302130e-02 6.666667e-01 5.000000e-01
3.302130e-02 6.666667e-01 3.000000e-01
-2.000000e-01 1.000000e+00 5.000000e-01
-2.000000e-01 1.000000e+00 3.000000e-01
-1.691801e-01 6.666667e-01 5.000000e-01
-1.691801e-01 6.666667e-01 3.000000e-01
-4.000000e-01 1.000000e+00 5.000000e-01
-4.000000e-01 1.000000e+00 3.000000e-01
-3.713816e-01 6.666667e-01 5.000000e-01
-3.713816e-01 6.666667e-01 3.000000e-01
-6.000000e-01 1.000000e+00 5.000000e-01
-6.000000e-01 1.000000e+00 3.000000e-01
-5.735829e-01 6.666667e-01 5.000000e-01
-5.735829e-01 6.666667e-01 3.000000e-01
-8.000000e-01 1.000000e+00 5.000000e-01
-8.000000e-01 1.000000e+00 3.000000e-01
-7.757844e-01 6.666667e-01 5.000000e-01
-7.757844e-01 6.666667e-01 3.000000e-01
-1.000000e+00 1.000000e+00 5.000000e-01
-1.000000e+00 1.000000e+00 3.000000e-01
-9.779858e-01 6.666667e-01 5.000000e-01
-9.779858e-01 6.666667e-01 3.000000e-01
-1.200000e+00 1.000000e+00 5.000000e-01
-1.200000e+00 1.000000e+00 3.000000e-01
-1.180187e+00 6.666667e-01 5.000000e-01
-1.180187e+00 6.666667e-01 3.000000e-01
-2.000000e-01 1.000000e+00 1.000000e-01
-1.691801e-01 6.666667e-01 1.000000e-01
-4.000000e-01 1.000000e+00 1.000000e-01
-3.713816e-01 6.666667e-01 1.000000e-01
-6.000000e-01 1.000000e+00 1.000000e-01
-5.735829e-01 6.666667e-01 1.000000e-01
-8.000000e-01 1.000000e+00 1.000000e-01
-7.757844e-01 6.666667e-01 1.000000e-01
-1.000000e+00 1.000000e+00 1.000000e-01
-9.779858e-01 6.666667e-01 1.000000e-01
-1.200000e+00 1.000000e+00 1.000000e-01
-1.180187e+00 6.666667e-01 1.000000e-01
-2.000000e-01 1.000000e+00 -1.000000e-01
-1.691801e-01 6.666667e-01 -1.000000e-01
-4.000000e-01 1.000000e+00 -1.000000e-01
-3.713816e-01 6.666667e-01 -1.000000e-01
-6.000000e-01 1.000000e+00 -1.000000e-01
-5.735829e-01 6.666667e-01 -1.000000e-01
-8.000000e-01 1.000000e+00 -1.000000e-01
-7.757844e-01 6.666667e-01 -1.000000e-01
-1.000000e+00 1.000000e+00 -1.000000e-01
-9.779858e-01 6.666667e-01 -1.000000e-01
-1.200000e+00 1.000000e+00 -1.000000e-01
-1.180187e+00 6.666667e-01 -1.000000e-01
-1.400000e+00 1.000000e+00 -1.000000e-01
-1.382389e+00 6.666667e-01 -1.000000e-01
-2.000000e-01 1.000000e+00 -3.000000e-01
-1.691801e-01 6.666667e-01 -3.000000e-01
-4.000000e-01 1.000000e+00 -3.000000e-01
-3.713816e-01 6.666667e-01 -3.000000e-01
-6.000000e-01 1.000000e+00 -3.000000e-01
-5.735829e-01 6.666667e-01 -3.000000e-01
-8.000000e-01 1.000000e+00 -3.000000e-01
-7.757844e-01 6.666667e-01 -3.000000e-01
-1.000000e+00 1.000000e+00 -3.000000e-01
-9.779858e-01 6.666667e-01 -3.000000e-01
-1.200000e+00 1.000000e+00 -3.000000e-01
-1.180187e+00 6.666667e-01 -3.000000e-01
-1.400000e+00 1.000000e+00 -3.000000e-01
-1.382389e+00 6.666667e-01 -3.000000e-01
-2.000000e-01 1.000000e+00 -5.000000e-01
-1.691801e-01 6.666667e-01 -5.000000e-01
-4.000000e-01 1.000000e+00 -5.000000e-01
-3.713816e-01 6.666667e-01 -5.000000e-01
-6.000000e-01 1.000000e+00 -5.000000e-01
-5.735829e-01 6.666667e-01 -5.000000e-01
-8.000000e-01 1.000000e+00 -5.000000e-01
-7.757844e-01 6.666667e-01 -5.000000e-01
-1.000000e+00 1.000000e+00 -5.000000e-01
-9.779858e-01 6.666667e-01 -5.000000e-01
-1.200000e+00 1.000000e+00 -5.000000e-01
-1.180187e+00 6.666667e-01 -5.000000e-01
-1.400000e+00 1.000000e+00 -5.000000e-01
-1.382389e+00 6.666667e-01 -5.000000e-01
6.604260e-02 3.333333e-01 5.000000e-01
6.604260e-02 3.333333e-01 3.000000e-01
-1.383602e-01 3.333333e-01 5.000000e-01
-1.383602e-01 3.333333e-01 3.000000e-01
-3.427631e-01 3.333333e-01 5.000000e-01
-3.427631e-01 3.333333e-01 3.000000e-01
-5.471659e-01 3.333333e-01 5.000000e-01
-5.471659e-01 3.333333e-01 3.000000e-01
-7.515687e-01 3.333333e-01 5.000000e-01
-7.515687e-01 3.333333e-01 3.000000e-01
-9.559716e-01 3.333333e-01 5.000000e-01
-9.559716e-01 3.333333e-01 3.000000e-01
-1.160374e+00 3.333333e-01 5.000000e-01
-1.160374e+00 3.333333e-01 3.000000e-01
-1.383602e-01 3.333333e-01 1.000000e-01
-3.427631e-01 3.333333e-01 1.000000e-01
-5.471659e-01 3.333333e-01 1.000000e-01
-7.515687e-01 3.333333e-01 1.000000e-01
-9.559716e-01 3.333333e-01 1.000000e-01
-1.160374e+00 3.333333e-01 1.000000e-01
-1.383602e-01 3.333333e-01 -1.000000e-01
-3.427631e-01 3.333333e-01 -1.000000e-01
-5.471659e-01 3.333333e-01 -1.000000e-01
-7.515687e-01 3.333333e-01 -1.000000e-01
-9.559716e-01 3.333333e-01 -1.000000e-01
-1.160374e+00 3.333333e-01 -1.000000e-01
-1.364777e+00 3.333333e-01 -1.000000e-01
-1.383602e-01 3.333333e-01 -3.000000e-01
-3.427631e-01 3.333333e-01 -3.000000e-01
-5.471659e-01 3.333333e-01 -3.000000e-01
-7.515687e-01 3.333333e-01 -3.000000e-01
-9.559716e-01 3.333333e-01 -3.000000e-01
-1.160374e+00 3.333333e-01 -3.000000e-01
-1.364777e+00 3.333333e-01 -3.000000e-01
-1.383602e-01 3.333333e-01 -5.000000e-01
-3.427631e-01 3.333333e-01 -5.000000e-01
-5.471659e-01 3.333333e-01 -5.000000e-01
-7.515687e-01 3.333333e-01 -5.000000e-01
-9.559716e-01 3.333333e-01 -5.000000e-01
-1.160374e+00 3.333333e-01 -5.000000e-01
-1.364777e+00 3.333333e-01 -5.000000e-01
9.906390e-02 -2.775558e-17 5.000000e-01
9.906390e-02 -5.551115e-17 3.000000e-01
-1.075404e-01 0.000000e+00 5.000000e-01
-1.075404e-01 0.000000e+00 3.000000e-01
-3.141446e-01 0.000000e+00 5.000000e-01
-3.141446e-01 0.000000e+00 3.000000e-01
-5.207489e-01 0.000000e+00 5.000000e-01
-5.207489e-01 0.000000e+00 3.000000e-01
-7.273532e-01 -5.551115e-17 5.000000e-01
-7.273532e-01 0.000000e+00 3.000000e-01
-9.339574e-01 0.000000e+00 5.000000e-01
-9.339574e-01 0.000000e+00 3.000000e-01
-1.140562e+00 0.000000e+00 5.000000e-01
-1.140562e+00 0.000000e+00 3.000000e-01
-1.075404e-01 -2.775558e-17 1.000000e-01
-3.141446e-01 0.000000e+00 1.000000e-01
-5.207489e-01 -2.775558e-17 1.000000e-01
-7.273532e-01 0.000000e+00 1.000000e-01
-9.339574e-01 0.000000e+00 1.000000e-01
-1.140562e+00 -2.775558e-17 1.000000e-01
-1.075404e-01 0.000000e+00 -1.000000e-01
-3.141446e-01 0.000000e+00 -1.000000e-01
-5.207489e-01 -2.775558e-17 -1.000000e-01
-7.273532e-01 0.000000e+00 -1.000000e-01
-9.339574e-01 0.000000e+00 -1.000000e-01
-1.140562e+00 -2.775558e-17 -1.000000e-01
-1.347166e+00 0.000000e+00 -1.000000e-01
-1.075404e-01 -2.775558e-17 -3.000000e-01
-3.141446e-01 0.000000e+00 -3.000000e-01
-5.207489e-01 0.000000e+00 -3.000000e-01
-7.273532e-01 -2.775558e-17 -3.000000e-01
-9.339574e-01 -2.775558e-17 -3.000000e-01
-1.140562e+00 -2.775558e-17 -3.000000e-01
-1.347166e+00 -5.551115e-17 -3.000000e-01
-1.075404e-01 0.000000e+00 -5.000000e-01
-3.141446e-01 0.000000e+00 -5.000000e-01
-5.207489e-01 0.000000e+00 -5.000000e-01
-7.273532e-01 0.000000e+00 -5.000000e-01
-9.339574e-01 0.000000e+00 -5.000000e-01
-1.140562e+00 0.000000e+00 -5.000000e-01
-1.347166e+00 -5.551115e-17 -5.000000e-01
1.320852e-01 -3.333333e-01 5.000000e-01
1.320852e-01 -3.333333e-01 3.000000e-01
-7.672048e-02 -3.333333e-01 5.000000e-01
-7.672048e-02 -3.333333e-01 3.000000e-01
-2.855262e-01 -3.333333e-01 5.000000e-01
-2.855262e-01 -3.333333e-01 3.000000e-01
-4.943318e-01 -3.333333e-01 5.000000e-01
-4.943318e-01 -3.333333e-01 3.000000e-01
-7.031375e-01 -3.333333e-01 5.000000e-01
-7.031375e-01 -3.333333e-01 3.000000e-01
-9.119432e-01 -3.333333e-01 5.000000e-01
-9.119432e-01 -3.333333e-01 3.000000e-01
-7.672048e-02 -3.333333e-01 1.000000e-01
-2.855262e-01 -3.333333e-01 1.000000e-01
-4.943318e-01 -3.333333e-01 1.000000e-01
-7.031375e-01 -3.333333e-01 1.000000e-01
-9.119432e-01 -3.333333e-01 1.000000e-01
-7.672048e-02 -3.333333e-01 -1.000000e-01
-2.855262e-01 -3.333333e-01 -1.000000e-01
-4.943318e-01 -3.333333e-01 -1.000000e-01
-7.031375e-01 -3.333333e-01 -1.000000e-01
-9.119432e-01 -3.333333e-01 -1.000000e-01
-1.120749e+00 -3.333333e-01 -1.000000e-01
-1.329555e+00 -3.333333e-01 -1.000000e-01
-7.672048e-02 -3.333333e-01 -3.000000e-01
-2.855262e-01 -3.333333e-01 -3.000000e-01
-4.943318e-01 -3.333333e-01 -3.000000e-01
-7.031375e-01 -3.333333e-01 -3.000000e-01
-9.119432e-01 -3.333333e-01 -3.000000e-01
-1.120749e+00 -3.333333e-01 -3.000000e-01
-1.329555e+00 -3.333333e-01 -3.000000e-01
-7.672048e-02 -3.333333e-01 -5.000000e-01
-2.855262e-01 -3.333333e-01 -5.000000e-01
-4.943318e-01 -3.333333e-01 -5.000000e-01
-7.031375e-01 -3.333333e-01 -5.000000e-01
-9.119432e-01 -3.333333e-01 -5.000000e-01
-1.120749e+00 -3.333333e-01 -5.000000e-01
-1.329555e+00 -3.333333e-01 -5.000000e-01
1.651065e-01 -6.666667e-01 5.000000e-01
1.651065e-01 -6.666667e-01 3.000000e-01
-4.590059e-02 -6.666667e-01 5.000000e-01
-4.590059e-02 -6.666667e-01 3.000000e-01
-2.569077e-01 -6.666667e-01 5.000000e-01
-2.569077e-01 -6.666667e-01 3.000000e-01
-4.679148e-01 -6.666667e-01 5.000000e-01
-4.679148e-01 -6.666667e-01 3.000000e-01
-6.789219e-01 -6.666667e-01 5.000000e-01
-6.789219e-01 -6.666667e-01 3.000000e-01
-8.899290e-01 -6.666667e-01 5.000000e-01
-8.899290e-01 -6.666667e-01 3.000000e-01
-4.590059e-02 -6.666667e-01 1.000000e-01
-2.569077e-01 -6.666667e-01 1.000000e-01
-4.679148e-01 -6.666667e-01 1.000000e-01
-6.789219e-01 -6.666667e-01 1.000000e-01
-8.899290e-01 -6.666667e-01 1.000000e-01
-4.590059e-02 -6.666667e-01 -1.000000e-01
-2.569077e-01 -6.666667e-01 -1.000000e-01
-4.679148e-01 -6.666667e-01 -1.000000e-01
-6.789219e-01 -6.666667e-01 -1.000000e-01
-8.899290e-01 -6.666667e-01 -1.000000e-01
-1.100936e+00 -6.666667e-01 -1.000000e-01
-1.311943e+00 -6.666667e-01 -1.000000e-01
-4.590059e-02 -6.666667e-01 -3.000000e-01
-2.569077e-01 -6.666667e-01 -3.000000e-01
-4.679148e-01 -6.666667e-01 -3.000000e-01
-6.789219e-01 -6.666667e-01 -3.000000e-01
-8.899290e-01 -6.666667e-01 -3.000000e-01
-1.100936e+00 -6.666667e-01 -3.000000e-01
-1.311943e+00 -6.666667e-01 -3.000000e-01
-4.590059e-02 -6.666667e-01 -5.000000e-01
-2.569077e-01 -6.666667e-01 -5.000000e-01
-4.679148e-01 -6.666667e-01 -5.000000e-01
-6.789219e-01 -6.666667e-01 -5.000000e-01
-8.899290e-01 -6.666667e-01 -5.000000e-01
-1.100936e+00 -6.666667e-01 -5.000000e-01
-1.311943e+00 -6.666667e-01 -5.000000e-01
1.981278e-01 -1.000000e+00 5.000000e-01
1.981278e-01 -1.000000e+00 3.000000e-01
[...]
CELL_DATA 900
SCALARS Density double 1
LOOKUP_TABLE default
1.000000e+00
1.000000e+00
1.000000e+00
1.000000e+00
1.000000e+00
1.000000e+00
1.000000e+00
1.000000e+00
1.000000e+00
1.000000e+00
1.000000e+00
1.000000e+00
1.000000e+00
1.000000e+00
1.000000e+00
1.000000e+00
1.000000e+00
1.000000e+00
1.000000e+00
1.000000e+00
1.000000e+00
1.000000e+00
1.000000e+00
1.000000e+00
1.000000e+00
1.000000e+00
1.000000e+00
1.000000e+00
1.000000e+00
1.000000e+00
1.000000e+00
1.000000e+00
1.000000e+00
1.000000e+00
1.000000e+00
1.000000e+00
1.000000e+00
1.000000e+00
1.000000e+00
1.000000e+00
1.000000e+00
1.000000e+00
1.000000e+00
1.000000e+00
1.000000e+00
1.000000e+00
1.000000e+00
1.000000e+00
1.000000e+00
1.000000e+00
1.000000e+00
1.000000e+00
1.000000e+00
1.000000e+00
1.000000e+00
1.000000e+00
1.000000e+00
1.000000e+00
1.000000e+00
1.000000e+00
1.000000e+00
1.000000e+00
1.000000e+00
1.000000e+00
1.000000e+00
1.000000e+00
1.000000e+00
1.000000e+00
1.000000e+00
1.000000e+00
1.000000e+00
1.000000e+00
1.000000e+00
1.000000e+00
1.000000e+00
1.000000e+00
1.000000e+00
1.000000e+00
1.000000e+00
1.000000e+00
1.000000e+00
1.000000e+00
1.000000e+00
1.000000e+00
1.000000e+00
1.000000e+00
1.000000e+00
1.000000e+00
1.000000e+00
1.000000e+00
1.000000e+00
1.000000e+00
1.000000e+00
1.000000e+00
1.000000e+00
1.000000e+00
1.000000e+00
1.000000e+00
1.000000e+00
1.000000e+00
1.000000e+00
1.000000e+00
1.000000e+00
1.000000e+00
1.000000e+00
1.000000e+00
1.000000e+00
1.000000e+00
1.000000e+00
1.000000e+00
1.000000e+00
1.000000e+00
1.000000e+00
1.000000e+00
1.000000e+00
1.000000e+00
1.000000e+00
1.000000e+00
1.000000e+00
1.000000e+00
1.000000e+00
1.000000e+00
1.000000e+00
1.000000e+00
1.000000e+00
1.000000e+00
1.000000e+00
1.000000e+00
1.000000e+00
1.000000e+00
1.000000e+00
1.000000e+00
1.000000e+00
1.000000e+00
1.000000e+00
1.000000e+00
1.000000e+00
1.000000e+00
1.000000e+00
1.000000e+00
1.000000e+00
1.000000e+00
1.000000e+00
1.000000e+00
1.000000e+00
1.000000e+00
1.000000e+00
1.000000e+00
1.000000e+00
1.000000e+00
1.000000e+00
1.000000e+00
1.000000e+00
1.000000e+00
1.000000e+00
1.000000e+00
1.000000e+00
1.000000e+00
1.000000e+00
1.000000e+00
1.000000e+00
1.000000e+00
1.000000e+00
1.000000e+00
1.000000e+00
1.000000e+00
1.000000e+00
1.000000e+00
1.000000e+00
1.000000e+00
1.000000e+00
1.000000e+00
1.000000e+00
1.000000e+00
1.000000e+00
1.000000e+00
1.000000e+00
1.000000e+00
1.000000e+00
1.000000e+00
1.000000e+00
1.000000e+00
1.000000e+00
1.000000e+00
1.000000e+00
1.000000e+00
1.000000e+00
1.000000e+00
1.000000e+00
1.000000e+00
1.000000e+00
1.000000e+00
1.000000e+00
1.000000e+00
1.000000e+00
1.000000e+00
1.000000e+00
1.000000e+00
1.000000e+00
1.000000e+00
1.000000e+00
1.000000e+00
1.000000e+00
1.000000e+00
1.000000e+00
1.000000e+00
1.000000e+00
1.000000e+00
1.000000e+00
1.000000e+00
1.000000e+00
1.000000e+00
1.000000e+00
1.000000e+00
1.000000e+00
1.000000e+00
1.000000e+00
1.000000e+00
1.000000e+00
1.000000e+00
1.000000e+00
1.000000e+00
1.000000e+00
1.000000e+00
1.000000e+00
1.000000e+00
1.000000e+00
1.000000e+00
1.000000e+00
1.000000e+00
1.000000e+00
1.000000e+00
1.000000e+00
1.000000e+00
1.000000e+00
1.000000e+00
1.000000e+00
1.000000e+00
1.000000e+00
1.000004e+00
1.000058e+00
1.000838e+00
1.006907e+00
1.054758e+00
1.000000e+00
1.000000e+00
1.000000e+00
1.000004e+00
1.000060e+00
1.000866e+00
1.007117e+00
1.055922e+00
1.000000e+00
1.000000e+00
1.000004e+00
1.000060e+00
1.000867e+00
1.007122e+00
1.055952e+00
1.000000e+00
1.000000e+00
1.000004e+00
1.000060e+00
1.000866e+00
1.007117e+00
1.055922e+00
1.000000e+00
1.000000e+00
1.000004e+00
1.000058e+00
1.000838e+00
1.006907e+00
1.054758e+00
1.000000e+00
1.000000e+00
1.000000e+00
1.000004e+00
1.000057e+00
1.000828e+00
1.006876e+00
1.054939e+00
1.000000e+00
1.000000e+00
1.000000e+00
1.000004e+00
1.000059e+00
1.000856e+00
1.007085e+00
1.056113e+00
1.000000e+00
1.000000e+00
1.000004e+00
1.000059e+00
1.000856e+00
1.007090e+00
1.056143e+00
1.000000e+00
1.000000e+00
1.000004e+00
1.000059e+00
1.000856e+00
1.007085e+00
1.056113e+00
1.000000e+00
1.000000e+00
1.000004e+00
1.000057e+00
1.000828e+00
1.006876e+00
1.054939e+00
1.000000e+00
1.000000e+00
1.000000e+00
1.000004e+00
1.000054e+00
1.000802e+00
1.006724e+00
1.054423e+00
1.000000e+00
1.000000e+00
1.000000e+00
1.000004e+00
1.000056e+00
1.000829e+00
1.006929e+00
1.055586e+00
1.000000e+00
1.000000e+00
1.000004e+00
1.000056e+00
1.000830e+00
1.006934e+00
1.055617e+00
1.000000e+00
1.000000e+00
1.000004e+00
1.000056e+00
1.000829e+00
1.006929e+00
1.055586e+00
1.000000e+00
1.000000e+00
1.000004e+00
1.000054e+00
1.000802e+00
1.006724e+00
1.054423e+00
1.000000e+00
1.000000e+00
1.000000e+00
1.000004e+00
1.000052e+00
1.000777e+00
1.006576e+00
1.053905e+00
1.000000e+00
1.000000e+00
1.000000e+00
1.000004e+00
1.000054e+00
1.000803e+00
1.006776e+00
1.055057e+00
1.000000e+00
1.000000e+00
1.000004e+00
1.000054e+00
1.000804e+00
1.006781e+00
1.055087e+00
1.000000e+00
1.000000e+00
1.000004e+00
1.000054e+00
1.000803e+00
1.006776e+00
1.055057e+00
1.000000e+00
1.000000e+00
1.000004e+00
1.000052e+00
1.000777e+00
1.006576e+00
1.053905e+00
1.000000e+00
1.000000e+00
1.000000e+00
1.000000e+00
1.000003e+00
1.000050e+00
1.000753e+00
1.006431e+00
1.053383e+00
1.000000e+00
1.000000e+00
1.000000e+00
1.000000e+00
1.000004e+00
1.000052e+00
1.000778e+00
1.006626e+00
1.054525e+00
1.000000e+00
1.000000e+00
1.000004e+00
1.000052e+00
1.000779e+00
1.006631e+00
1.054555e+00
1.000000e+00
1.000000e+00
1.000004e+00
1.000052e+00
1.000778e+00
1.006626e+00
1.054525e+00
1.000000e+00
1.000000e+00
1.000003e+00
1.000050e+00
1.000753e+00
1.006431e+00
1.053383e+00
1.000000e+00
1.000000e+00
1.000000e+00
1.000000e+00
1.000003e+00
1.000047e+00
1.000715e+00
1.006176e+00
1.052206e+00
1.000000e+00
1.000000e+00
1.000000e+00
1.000000e+00
1.000003e+00
1.000049e+00
1.000739e+00
1.006363e+00
1.053319e+00
1.000000e+00
1.000000e+00
1.000003e+00
1.000049e+00
1.000740e+00
1.006368e+00
1.053348e+00
1.000000e+00
1.000000e+00
1.000003e+00
1.000049e+00
1.000739e+00
1.006363e+00
1.053319e+00
1.000000e+00
1.000000e+00
1.000003e+00
1.000047e+00
1.000715e+00
1.006176e+00
1.052206e+00
1.000000e+00
1.000000e+00
1.000000e+00
1.000000e+00
1.000000e+00
1.000000e+00
1.000000e+00
1.000000e+00
1.000000e+00
1.000000e+00
1.000000e+00
1.000000e+00
1.000000e+00
1.000000e+00
1.000000e+00
1.000000e+00
1.000000e+00
1.000000e+00
1.000000e+00
1.000000e+00
1.000000e+00
1.000000e+00
1.000000e+00
1.000000e+00
1.000000e+00
1.000000e+00
1.000000e+00
1.000000e+00
1.000000e+00
1.000000e+00
1.000000e+00
1.000000e+00
1.000000e+00
1.000000e+00
1.000000e+00
1.000000e+00
1.000000e+00
1.000000e+00
1.000000e+00
1.000000e+00
1.000000e+00
1.000000e+00
1.000000e+00
1.000000e+00
1.000000e+00
1.000000e+00
1.000000e+00
1.000000e+00
1.000000e+00
1.000000e+00
1.000000e+00
1.000000e+00
1.000000e+00
1.000000e+00
1.000000e+00
1.000000e+00
1.000000e+00
1.000000e+00
1.000000e+00
1.000000e+00
1.000000e+00
1.000000e+00
1.000000e+00
1.000000e+00
1.000000e+00
1.000000e+00
1.000000e+00
1.000000e+00
1.000000e+00
1.000000e+00
1.000000e+00
1.000000e+00
1.000000e+00
1.000000e+00
1.000000e+00
1.000000e+00
1.000000e+00
1.000000e+00
1.000000e+00
1.000000e+00
1.000000e+00
1.000000e+00
1.000000e+00
1.000000e+00
1.000000e+00
1.000000e+00
1.000000e+00
1.000000e+00
1.000000e+00
1.000000e+00
1.000000e+00
1.000000e+00
1.000000e+00
1.000000e+00
1.000000e+00
1.000000e+00
1.000000e+00
1.000000e+00
1.000000e+00
1.000000e+00
1.000000e+00
1.000000e+00
1.000000e+00
1.000000e+00
1.000000e+00
1.000000e+00
1.000000e+00
1.000000e+00
1.000000e+00
1.000000e+00
1.000000e+00
1.000000e+00
1.000000e+00
1.000000e+00
1.000000e+00
1.000000e+00
1.000000e+00
1.000000e+00
1.000000e+00
1.000000e+00
1.000000e+00
1.000000e+00
1.000000e+00
1.000000e+00
1.000000e+00
1.000000e+00
1.000000e+00
1.000000e+00
1.000000e+00
1.000000e+00
1.000000e+00
1.000000e+00
1.000000e+00
1.000000e+00
1.000000e+00
1.000000e+00
1.000000e+00
1.000000e+00
1.000000e+00
1.000000e+00
1.000000e+00
1.000000e+00
1.000000e+00
1.000000e+00
1.000000e+00
1.000000e+00
1.000000e+00
1.000000e+00
1.000000e+00
1.000000e+00
1.000000e+00
1.000000e+00
1.000000e+00
1.000000e+00
1.000000e+00
1.000000e+00
1.000000e+00
1.000000e+00
1.000000e+00
1.000000e+00
1.000000e+00
1.000000e+00
1.000000e+00
1.000000e+00
1.000000e+00
1.000000e+00
1.000000e+00
1.000000e+00
1.000000e+00
1.000000e+00
1.000000e+00
1.000000e+00
1.000000e+00
1.000000e+00
1.000000e+00
1.000000e+00
1.000000e+00
1.000000e+00
1.000000e+00
1.000000e+00
1.000000e+00
1.000000e+00
1.000000e+00
1.000000e+00
1.000000e+00
1.000000e+00
1.000000e+00
1.000000e+00
1.000000e+00
1.000000e+00
1.000000e+00
1.000000e+00
1.000000e+00
1.000000e+00
1.000000e+00
1.000000e+00
1.000000e+00
1.000000e+00
1.000000e+00
1.000000e+00
1.000000e+00
1.000000e+00
1.000000e+00
1.000000e+00
1.000000e+00
1.000000e+00
1.000000e+00
1.000000e+00
1.000000e+00
1.000000e+00
1.000000e+00
1.000000e+00
1.000000e+00
1.000000e+00
1.000000e+00
1.000000e+00
1.000000e+00
1.000000e+00
1.000000e+00
1.000000e+00
1.000000e+00
1.000000e+00
1.000000e+00
1.000000e+00
1.000000e+00
1.000000e+00
1.000000e+00
1.000000e+00
1.000000e+00
1.000000e+00
1.000000e+00
1.000000e+00
1.000000e+00
1.000000e+00
1.000000e+00
1.000000e+00
1.000000e+00
1.000000e+00
1.000000e+00
1.000000e+00
1.000000e+00
1.000000e+00
1.000000e+00
1.000000e+00
1.000000e+00
1.000000e+00
1.000000e+00
1.000000e+00
1.000000e+00
1.000000e+00
1.000000e+00
1.000000e+00
1.000000e+00
1.000000e+00
1.000000e+00
1.000000e+00
1.000000e+00
1.000000e+00
1.000000e+00
1.000000e+00
1.000000e+00
1.000000e+00
1.000000e+00
1.000000e+00
1.000000e+00
1.000000e+00
1.000000e+00
1.000000e+00
1.000000e+00
1.000000e+00
1.000000e+00
1.000000e+00
1.000000e+00
1.000000e+00
1.000000e+00
1.000000e+00
1.000000e+00
1.000000e+00
1.000000e+00
1.000000e+00
1.000000e+00
1.000000e+00
1.000000e+00
1.000000e+00
1.000000e+00
1.000000e+00
1.000000e+00
1.000000e+00
1.000000e+00
1.000000e+00
1.000000e+00
1.000000e+00
1.000000e+00
1.000000e+00
1.000000e+00
1.000000e+00
1.000000e+00
1.000000e+00
1.000000e+00
1.000000e+00
1.000000e+00
1.000000e+00
1.000000e+00
1.000000e+00
1.000000e+00
1.000000e+00
1.000000e+00
1.000000e+00
1.000000e+00
1.000000e+00
1.000000e+00
1.000000e+00
1.000000e+00
1.000000e+00
1.000000e+00
1.000000e+00
1.000000e+00
1.000000e+00
1.000000e+00
1.000000e+00
1.000000e+00
1.000000e+00
1.000000e+00
1.000000e+00
1.000000e+00
1.000000e+00
1.000000e+00
1.000000e+00
1.000000e+00
1.000000e+00
1.000000e+00
1.000000e+00
1.000000e+00
1.000000e+00
1.000000e+00
1.000000e+00
1.000000e+00
1.000000e+00
1.000000e+00
1.000000e+00
1.000000e+00
1.000000e+00
1.000000e+00
1.000000e+00
1.000000e+00
1.000000e+00
1.000000e+00
1.000000e+00
1.000000e+00
1.000000e+00
1.000000e+00
1.000000e+00
1.000000e+00
1.000000e+00
1.000000e+00
1.000000e+00
1.000000e+00
1.000000e+00
1.000000e+00
1.000000e+00
1.000000e+00
1.000000e+00
1.000000e+00
1.000000e+00
1.000000e+00
1.000000e+00
1.000000e+00
1.000000e+00
1.000000e+00
1.000000e+00
1.000000e+00
1.000000e+00
1.000000e+00
1.000000e+00
1.000000e+00
1.000000e+00
1.000000e+00
1.000000e+00
1.000000e+00
1.000000e+00
1.000000e+00
1.000000e+00
1.000000e+00
1.000000e+00
1.000000e+00
1.000000e+00
1.000000e+00
1.000000e+00
1.000000e+00
1.000000e+00
1.000000e+00
1.000000e+00
1.000000e+00
1.000000e+00
1.000000e+00
1.000000e+00
1.000000e+00
1.000000e+00
1.000000e+00
1.000000e+00
1.000000e+00
1.000000e+00
1.000000e+00
1.000000e+00
1.000000e+00
1.000000e+00
1.000000e+00
1.000000e+00
1.000000e+00
1.000000e+00
1.000000e+00
1.000000e+00
1.000000e+00
1.000000e+00
1.000000e+00
1.000000e+00
1.000000e+00
1.000000e+00
1.000000e+00
1.000000e+00
1.000000e+00
1.000000e+00
1.000000e+00
1.000000e+00
1.000000e+00
1.000000e+00
1.000000e+00
1.000000e+00
1.000000e+00
1.000000e+00
1.000000e+00
1.000000e+00
1.000000e+00
1.000000e+00
1.000000e+00
1.000000e+00
1.000000e+00
1.000000e+00
VECTORS Momentum double
0.000000e+00 9.675594e-18 -1.323488e-17
0.000000e+00 -3.469447e-18 1.084790e-17
-5.551115e-18 0.000000e+00 1.643790e-24
2.398082e-18 -6.997181e-18 9.181338e-22
1.029143e-15 8.151913e-17 4.186833e-19
5.243755e-14 3.453586e-15 1.496363e-16
1.882523e-12 1.115442e-13 5.297704e-15
5.832971e-11 3.071672e-12 1.829236e-13
5.551115e-18 -3.469447e-18 1.323488e-17
-5.551115e-18 2.556289e-18 -1.084790e-17
1.665335e-17 2.775558e-18 7.029512e-25
2.287059e-18 6.375456e-18 3.948168e-22
1.076434e-15 8.222816e-17 1.776012e-19
5.460261e-14 3.596363e-15 6.180028e-17
1.957422e-12 1.160428e-13 2.040937e-15
6.063523e-11 3.193079e-12 6.869814e-14
0.000000e+00 -7.721601e-18 5.423951e-18
1.665335e-17 3.774758e-18 2.974608e-36
2.398082e-18 2.250977e-18 1.740932e-33
1.072815e-15 7.415406e-17 7.925897e-31
5.467791e-14 3.594573e-15 -1.612140e-30
1.959177e-12 1.161193e-13 -1.375816e-28
6.068631e-11 3.195559e-12 -1.622396e-26
1.783375e-09 8.274271e-11 -2.373039e-24
-5.551115e-18 8.326673e-18 -5.423951e-18
1.665335e-17 2.775558e-18 -7.029513e-25
2.264855e-18 6.075696e-18 -3.948169e-22
1.072193e-15 8.559768e-17 -1.776012e-19
5.460254e-14 3.596357e-15 -6.180028e-17
1.957422e-12 1.160427e-13 -2.040937e-15
6.063523e-11 3.193079e-12 -6.869813e-14
1.781888e-09 8.267441e-11 -2.080888e-12
0.000000e+00 2.081668e-18 -2.537308e-27
-1.110223e-17 1.387779e-18 -1.644038e-24
2.398082e-18 -4.848899e-18 -9.185734e-22
1.029831e-15 8.008971e-17 -4.192768e-19
5.243755e-14 3.453503e-15 -1.500345e-16
1.882523e-12 1.115440e-13 -5.297580e-15
5.832971e-11 3.071672e-12 -1.829238e-13
1.714681e-09 7.955637e-11 -5.577399e-12
-8.570922e-17 4.019739e-17 3.978099e-30
-5.617729e-18 -2.081668e-18 2.434373e-27
2.220446e-17 -6.245005e-18 1.470703e-24
1.809664e-17 8.132384e-19 8.089934e-22
8.684866e-16 6.147950e-17 3.741235e-19
4.755423e-14 3.079585e-15 1.377896e-16
1.729047e-12 1.008745e-13 4.970527e-15
5.414832e-11 2.796531e-12 1.699048e-13
-1.665335e-17 -3.255729e-18 -2.440233e-19
1.665335e-17 4.055090e-18 1.040216e-27
-1.110223e-17 -5.875855e-18 6.369708e-25
1.860734e-17 -3.327894e-18 3.501406e-22
9.366488e-16 6.987468e-17 1.594225e-19
4.957609e-14 3.204561e-15 5.708716e-17
1.797870e-12 1.048749e-13 1.909255e-15
5.628943e-11 2.907250e-12 6.364194e-14
-1.665335e-17 2.081668e-18 5.018970e-39
0.000000e+00 3.164136e-18 2.150830e-36
2.287059e-18 -6.483702e-18 8.752304e-34
9.395798e-16 7.059077e-17 3.236227e-31
4.962353e-14 3.207518e-15 4.703177e-29
1.799289e-12 1.049250e-13 3.323411e-27
5.633632e-11 2.909582e-12 -3.120102e-26
1.673844e-09 7.593604e-11 -9.035805e-25
1.665335e-17 -1.387779e-18 -1.041963e-27
-1.110223e-17 -6.938894e-18 -6.375302e-25
2.375877e-17 -5.390133e-18 -3.502925e-22
9.367376e-16 6.986357e-17 -1.594560e-19
4.957648e-14 3.204356e-15 -5.709259e-17
1.797872e-12 1.048722e-13 -1.909715e-15
5.628943e-11 2.907248e-12 -6.364203e-14
1.672447e-09 7.587267e-11 -1.952960e-12
-3.463896e-18 -5.578871e-18 -2.434115e-27
1.665335e-17 -2.081668e-18 -1.470686e-24
1.809664e-17 8.132384e-19 -8.090170e-22
8.687086e-16 6.146840e-17 -3.741520e-19
4.755414e-14 3.079533e-15 -1.378369e-16
1.729047e-12 1.008740e-13 -4.970877e-15
5.414832e-11 2.796531e-12 -1.699044e-13
1.609357e-09 7.301208e-11 -5.235533e-12
-8.807493e-15 -1.275507e-15 -6.686198e-17
-5.819762e-17 -6.275372e-18 4.154281e-23
0.000000e+00 -3.450018e-18 3.688031e-21
-9.792167e-18 -8.471002e-18 2.455629e-19
7.351116e-16 5.626043e-17 1.115259e-17
4.219226e-14 2.719710e-15 1.170731e-16
1.553987e-12 9.018726e-14 4.331366e-15
4.918817e-11 2.521398e-12 1.548945e-13
4.423531e-17 9.936397e-18 -8.911859e-17
1.108003e-17 6.938894e-19 -5.539462e-18
2.220446e-17 4.163336e-18 -1.225446e-19
-9.681145e-18 8.659740e-19 -5.426535e-18
7.776701e-16 6.056129e-17 1.248731e-19
4.392455e-14 2.834706e-15 4.824238e-17
1.616108e-12 9.373191e-14 1.610586e-15
5.113252e-11 2.620952e-12 5.812885e-14
0.000000e+00 2.081668e-18 5.426634e-18
-5.551115e-18 2.081668e-18 -1.105910e-29
7.061018e-18 2.178813e-18 -4.835932e-27
7.783362e-16 5.963980e-17 -1.636051e-24
4.393007e-14 2.835238e-15 -4.080605e-22
1.617427e-12 9.381448e-14 -8.917585e-20
5.117570e-11 2.623124e-12 -8.650410e-20
1.537026e-09 6.911517e-11 1.538602e-19
6.772360e-18 7.494005e-19 -7.882941e-18
1.665335e-17 3.469447e-18 1.206802e-19
-1.525446e-17 4.696243e-18 5.302192e-18
7.789357e-16 5.918739e-17 -5.676075e-18
4.392435e-14 2.832936e-15 -5.383547e-17
1.616103e-12 9.373135e-14 -1.615562e-15
5.113252e-11 2.620951e-12 -5.813753e-14
1.535744e-09 6.905749e-11 -1.793068e-12
7.005897e-16 6.844345e-17 -5.490504e-18
7.971401e-18 3.291811e-18 -1.011235e-24
-9.814372e-18 -8.576473e-18 -5.992170e-22
7.351782e-16 5.745392e-17 -2.979265e-19
4.218396e-14 2.721544e-15 -1.169716e-16
1.553987e-12 9.018721e-14 -4.329476e-15
4.918820e-11 2.521398e-12 -1.548949e-13
1.477812e-09 6.645434e-11 -4.805829e-12
9.193090e-15 8.888787e-16 1.122130e-15
6.128659e-16 6.161053e-17 3.588369e-18
1.754152e-18 0.000000e+00 -3.294126e-21
6.528111e-18 1.459943e-18 -2.207684e-19
6.226176e-16 4.076703e-17 -9.655712e-18
3.753757e-14 2.440529e-15 1.014643e-16
1.397999e-12 8.117397e-14 3.858608e-15
4.471438e-11 2.293005e-12 1.401479e-13
9.916512e-17 9.475754e-18 6.268453e-16
7.549517e-18 -6.716849e-19 6.774887e-18
2.220446e-17 4.601874e-18 1.097159e-19
1.532108e-18 -4.063416e-18 4.910513e-18
6.539575e-16 4.533571e-17 1.083373e-19
3.907267e-14 2.525541e-15 4.211485e-17
1.453552e-12 8.437960e-14 1.473408e-15
4.648235e-11 2.383418e-12 5.238324e-14
0.000000e+00 2.081668e-18 -4.823874e-18
-1.936229e-17 -6.683543e-18 1.286296e-29
6.550316e-18 2.151057e-18 6.588987e-27
6.516705e-16 4.999032e-17 2.547935e-24
3.912268e-14 2.533059e-15 6.636293e-22
1.454616e-12 8.445166e-14 8.735386e-20
4.652105e-11 2.385490e-12 -6.726018e-20
1.412240e-09 6.353702e-11 -1.095741e-19
3.974598e-18 3.913536e-18 4.844462e-18
2.220446e-17 4.829470e-18 -1.080498e-19
6.838974e-18 -4.776735e-18 -4.798213e-18
6.490059e-16 4.533848e-17 4.958230e-18
3.907320e-14 2.525599e-15 -3.707453e-17
1.453556e-12 8.437890e-14 -1.468621e-15
4.648235e-11 2.383418e-12 -5.238646e-14
1.411062e-09 6.348406e-11 -1.647339e-12
-4.980018e-17 -7.688478e-18 1.534964e-18
-4.263256e-18 -6.938894e-19 1.587362e-22
6.461498e-18 -2.703393e-18 1.027110e-20
6.115376e-16 4.012588e-17 2.333265e-19
3.755422e-14 2.443110e-15 -1.011661e-16
1.398000e-12 8.117400e-14 -3.859677e-15
4.471438e-11 2.293007e-12 -1.401389e-13
1.357833e-09 6.109059e-11 -4.416355e-12
8.020251e-17 3.835400e-16 2.038712e-18
2.335909e-17 4.846124e-18 7.278593e-28
-5.551115e-18 3.469447e-18 3.825744e-25
-4.796163e-18 6.383782e-20 2.154050e-22
5.187059e-16 4.122938e-17 1.200714e-19
3.337072e-14 2.157360e-15 5.741450e-17
1.258060e-12 7.263678e-14 3.448542e-15
-1.565414e-17 7.391310e-18 1.573213e-18
5.551115e-18 2.775558e-18 2.730090e-28
2.220446e-17 1.387779e-18 1.396873e-25
7.549517e-19 6.292189e-18 7.734057e-23
5.344925e-16 4.736180e-17 4.291325e-20
3.471378e-14 2.228994e-15 2.051127e-17
1.308090e-12 7.548050e-14 1.290966e-15
-1.110223e-17 -2.775558e-18 1.305755e-38
0.000000e+00 -4.163336e-18 1.137884e-35
9.103829e-19 -1.237899e-18 8.403578e-33
5.411317e-16 3.673696e-17 5.091284e-30
3.473536e-14 2.225781e-15 2.463769e-27
1.309278e-12 7.555996e-14 8.595310e-25
4.231707e-11 2.155110e-12 1.964509e-22
1.298275e-09 5.792860e-11 2.200650e-20
5.551115e-18 2.775558e-18 -2.730708e-28
2.220446e-17 1.387779e-18 -1.397936e-25
7.549517e-19 6.306067e-18 -7.746356e-23
5.346036e-16 4.765601e-17 -4.299232e-20
3.471398e-14 2.234209e-15 -2.051115e-17
1.308090e-12 7.548044e-14 -1.290943e-15
4.228138e-11 2.153277e-12 -4.791295e-14
1.297192e-09 5.788014e-11 -1.514769e-12
2.196021e-17 2.775558e-18 -7.267453e-28
-5.551115e-18 3.469447e-18 -3.821413e-25
-4.796163e-18 -6.328271e-19 -2.152290e-22
5.149755e-16 3.933090e-17 -1.199781e-19
3.337116e-14 2.158009e-15 -5.736967e-17
1.258060e-12 7.263761e-14 -3.448576e-15
4.067319e-11 2.071441e-12 -1.275091e-13
1.248260e-09 5.569859e-11 -4.059680e-12
0.000000e+00 3.275158e-19 6.117704e-31
-5.551115e-18 0.000000e+00 3.558705e-28
5.551115e-18 2.775558e-18 2.160361e-25
1.705303e-17 2.117750e-18 1.388645e-22
3.856598e-16 3.225829e-17 8.626126e-20
2.901177e-14 1.837141e-15 4.542847e-17
1.106835e-12 6.275363e-14 2.917679e-15
-5.551115e-18 -5.354051e-18 1.612125e-31