# vtk DataFile Version 2.0
Simplicial Mesh Example
ASCII
DATASET UNSTRUCTURED_GRID
POINTS 1302 double
0.000000e+00 1.000000e+00 5.000000e-01
-5.551115e-17 1.000000e+00 3.000000e-01
3.302130e-02 6.666667e-01 5.000000e-01
3.302130e-02 6.666667e-01 3.000000e-01
-2.000000e-01 1.000000e+00 5.000000e-01
-2.000000e-01 1.000000e+00 3.000000e-01
-1.691801e-01 6.666667e-01 5.000000e-01
-1.691801e-01 6.666667e-01 3.000000e-01
-4.000000e-01 1.000000e+00 5.000000e-01
-4.000000e-01 1.000000e+00 3.000000e-01
-3.713816e-01 6.666667e-01 5.000000e-01
-3.713816e-01 6.666667e-01 3.000000e-01
-6.000000e-01 1.000000e+00 5.000000e-01
-6.000000e-01 1.000000e+00 3.000000e-01
-5.735829e-01 6.666667e-01 5.000000e-01
-5.735829e-01 6.666667e-01 3.000000e-01
-8.000000e-01 1.000000e+00 5.000000e-01
-8.000000e-01 1.000000e+00 3.000000e-01
-7.757844e-01 6.666667e-01 5.000000e-01
-7.757844e-01 6.666667e-01 3.000000e-01
-1.000000e+00 1.000000e+00 5.000000e-01
-1.000000e+00 1.000000e+00 3.000000e-01
-9.779858e-01 6.666667e-01 5.000000e-01
-9.779858e-01 6.666667e-01 3.000000e-01
-1.200000e+00 1.000000e+00 5.000000e-01
-1.200000e+00 1.000000e+00 3.000000e-01
-1.180187e+00 6.666667e-01 5.000000e-01
-1.180187e+00 6.666667e-01 3.000000e-01
-2.000000e-01 1.000000e+00 1.000000e-01
-1.691801e-01 6.666667e-01 1.000000e-01
-4.000000e-01 1.000000e+00 1.000000e-01
-3.713816e-01 6.666667e-01 1.000000e-01
-6.000000e-01 1.000000e+00 1.000000e-01
-5.735829e-01 6.666667e-01 1.000000e-01
-8.000000e-01 1.000000e+00 1.000000e-01
-7.757844e-01 6.666667e-01 1.000000e-01
-1.000000e+00 1.000000e+00 1.000000e-01
-9.779858e-01 6.666667e-01 1.000000e-01
-1.200000e+00 1.000000e+00 1.000000e-01
-1.180187e+00 6.666667e-01 1.000000e-01
-2.000000e-01 1.000000e+00 -1.000000e-01
-1.691801e-01 6.666667e-01 -1.000000e-01
-4.000000e-01 1.000000e+00 -1.000000e-01
-3.713816e-01 6.666667e-01 -1.000000e-01
-6.000000e-01 1.000000e+00 -1.000000e-01
-5.735829e-01 6.666667e-01 -1.000000e-01
-8.000000e-01 1.000000e+00 -1.000000e-01
-7.757844e-01 6.666667e-01 -1.000000e-01
-1.000000e+00 1.000000e+00 -1.000000e-01
-9.779858e-01 6.666667e-01 -1.000000e-01
-1.200000e+00 1.000000e+00 -1.000000e-01
-1.180187e+00 6.666667e-01 -1.000000e-01
-1.400000e+00 1.000000e+00 -1.000000e-01
-1.382389e+00 6.666667e-01 -1.000000e-01
-2.000000e-01 1.000000e+00 -3.000000e-01
-1.691801e-01 6.666667e-01 -3.000000e-01
-4.000000e-01 1.000000e+00 -3.000000e-01
-3.713816e-01 6.666667e-01 -3.000000e-01
-6.000000e-01 1.000000e+00 -3.000000e-01
-5.735829e-01 6.666667e-01 -3.000000e-01
-8.000000e-01 1.000000e+00 -3.000000e-01
-7.757844e-01 6.666667e-01 -3.000000e-01
-1.000000e+00 1.000000e+00 -3.000000e-01
-9.779858e-01 6.666667e-01 -3.000000e-01
-1.200000e+00 1.000000e+00 -3.000000e-01
-1.180187e+00 6.666667e-01 -3.000000e-01
-1.400000e+00 1.000000e+00 -3.000000e-01
-1.382389e+00 6.666667e-01 -3.000000e-01
-2.000000e-01 1.000000e+00 -5.000000e-01
-1.691801e-01 6.666667e-01 -5.000000e-01
-4.000000e-01 1.000000e+00 -5.000000e-01
-3.713816e-01 6.666667e-01 -5.000000e-01
-6.000000e-01 1.000000e+00 -5.000000e-01
-5.735829e-01 6.666667e-01 -5.000000e-01
-8.000000e-01 1.000000e+00 -5.000000e-01
-7.757844e-01 6.666667e-01 -5.000000e-01
-1.000000e+00 1.000000e+00 -5.000000e-01
-9.779858e-01 6.666667e-01 -5.000000e-01
-1.200000e+00 1.000000e+00 -5.000000e-01
-1.180187e+00 6.666667e-01 -5.000000e-01
-1.400000e+00 1.000000e+00 -5.000000e-01
-1.382389e+00 6.666667e-01 -5.000000e-01
6.604260e-02 3.333333e-01 5.000000e-01
6.604260e-02 3.333333e-01 3.000000e-01
-1.383602e-01 3.333333e-01 5.000000e-01
-1.383602e-01 3.333333e-01 3.000000e-01
-3.427631e-01 3.333333e-01 5.000000e-01
-3.427631e-01 3.333333e-01 3.000000e-01
-5.471659e-01 3.333333e-01 5.000000e-01
-5.471659e-01 3.333333e-01 3.000000e-01
-7.515687e-01 3.333333e-01 5.000000e-01
-7.515687e-01 3.333333e-01 3.000000e-01
-9.559716e-01 3.333333e-01 5.000000e-01
-9.559716e-01 3.333333e-01 3.000000e-01
-1.160374e+00 3.333333e-01 5.000000e-01
-1.160374e+00 3.333333e-01 3.000000e-01
-1.383602e-01 3.333333e-01 1.000000e-01
-3.427631e-01 3.333333e-01 1.000000e-01
-5.471659e-01 3.333333e-01 1.000000e-01
-7.515687e-01 3.333333e-01 1.000000e-01
-9.559716e-01 3.333333e-01 1.000000e-01
-1.160374e+00 3.333333e-01 1.000000e-01
-1.383602e-01 3.333333e-01 -1.000000e-01
-3.427631e-01 3.333333e-01 -1.000000e-01
-5.471659e-01 3.333333e-01 -1.000000e-01
-7.515687e-01 3.333333e-01 -1.000000e-01
-9.559716e-01 3.333333e-01 -1.000000e-01
-1.160374e+00 3.333333e-01 -1.000000e-01
-1.364777e+00 3.333333e-01 -1.000000e-01
-1.383602e-01 3.333333e-01 -3.000000e-01
-3.427631e-01 3.333333e-01 -3.000000e-01
-5.471659e-01 3.333333e-01 -3.000000e-01
-7.515687e-01 3.333333e-01 -3.000000e-01
-9.559716e-01 3.333333e-01 -3.000000e-01
-1.160374e+00 3.333333e-01 -3.000000e-01
-1.364777e+00 3.333333e-01 -3.000000e-01
-1.383602e-01 3.333333e-01 -5.000000e-01
-3.427631e-01 3.333333e-01 -5.000000e-01
-5.471659e-01 3.333333e-01 -5.000000e-01
-7.515687e-01 3.333333e-01 -5.000000e-01
-9.559716e-01 3.333333e-01 -5.000000e-01
-1.160374e+00 3.333333e-01 -5.000000e-01
-1.364777e+00 3.333333e-01 -5.000000e-01
9.906390e-02 -2.775558e-17 5.000000e-01
9.906390e-02 -5.551115e-17 3.000000e-01
-1.075404e-01 0.000000e+00 5.000000e-01
-1.075404e-01 0.000000e+00 3.000000e-01
-3.141446e-01 0.000000e+00 5.000000e-01
-3.141446e-01 0.000000e+00 3.000000e-01
-5.207489e-01 0.000000e+00 5.000000e-01
-5.207489e-01 0.000000e+00 3.000000e-01
-7.273532e-01 -5.551115e-17 5.000000e-01
-7.273532e-01 0.000000e+00 3.000000e-01
-9.339574e-01 0.000000e+00 5.000000e-01
-9.339574e-01 0.000000e+00 3.000000e-01
-1.140562e+00 0.000000e+00 5.000000e-01
-1.140562e+00 0.000000e+00 3.000000e-01
-1.075404e-01 -2.775558e-17 1.000000e-01
-3.141446e-01 0.000000e+00 1.000000e-01
-5.207489e-01 -2.775558e-17 1.000000e-01
-7.273532e-01 0.000000e+00 1.000000e-01
-9.339574e-01 0.000000e+00 1.000000e-01
-1.140562e+00 -2.775558e-17 1.000000e-01
-1.075404e-01 0.000000e+00 -1.000000e-01
-3.141446e-01 0.000000e+00 -1.000000e-01
-5.207489e-01 -2.775558e-17 -1.000000e-01
-7.273532e-01 0.000000e+00 -1.000000e-01
-9.339574e-01 0.000000e+00 -1.000000e-01
-1.140562e+00 -2.775558e-17 -1.000000e-01
-1.347166e+00 0.000000e+00 -1.000000e-01
-1.075404e-01 -2.775558e-17 -3.000000e-01
-3.141446e-01 0.000000e+00 -3.000000e-01
-5.207489e-01 0.000000e+00 -3.000000e-01
-7.273532e-01 -2.775558e-17 -3.000000e-01
-9.339574e-01 -2.775558e-17 -3.000000e-01
-1.140562e+00 -2.775558e-17 -3.000000e-01
-1.347166e+00 -5.551115e-17 -3.000000e-01
-1.075404e-01 0.000000e+00 -5.000000e-01
-3.141446e-01 0.000000e+00 -5.000000e-01
-5.207489e-01 0.000000e+00 -5.000000e-01
-7.273532e-01 0.000000e+00 -5.000000e-01
-9.339574e-01 0.000000e+00 -5.000000e-01
-1.140562e+00 0.000000e+00 -5.000000e-01
-1.347166e+00 -5.551115e-17 -5.000000e-01
1.320852e-01 -3.333333e-01 5.000000e-01
1.320852e-01 -3.333333e-01 3.000000e-01
-7.672048e-02 -3.333333e-01 5.000000e-01
-7.672048e-02 -3.333333e-01 3.000000e-01
-2.855262e-01 -3.333333e-01 5.000000e-01
-2.855262e-01 -3.333333e-01 3.000000e-01
-4.943318e-01 -3.333333e-01 5.000000e-01
-4.943318e-01 -3.333333e-01 3.000000e-01
-7.031375e-01 -3.333333e-01 5.000000e-01
-7.031375e-01 -3.333333e-01 3.000000e-01
-9.119432e-01 -3.333333e-01 5.000000e-01
-9.119432e-01 -3.333333e-01 3.000000e-01
-7.672048e-02 -3.333333e-01 1.000000e-01
-2.855262e-01 -3.333333e-01 1.000000e-01
-4.943318e-01 -3.333333e-01 1.000000e-01
-7.031375e-01 -3.333333e-01 1.000000e-01
-9.119432e-01 -3.333333e-01 1.000000e-01
-7.672048e-02 -3.333333e-01 -1.000000e-01
-2.855262e-01 -3.333333e-01 -1.000000e-01
-4.943318e-01 -3.333333e-01 -1.000000e-01
-7.031375e-01 -3.333333e-01 -1.000000e-01
-9.119432e-01 -3.333333e-01 -1.000000e-01
-1.120749e+00 -3.333333e-01 -1.000000e-01
-1.329555e+00 -3.333333e-01 -1.000000e-01
-7.672048e-02 -3.333333e-01 -3.000000e-01
-2.855262e-01 -3.333333e-01 -3.000000e-01
-4.943318e-01 -3.333333e-01 -3.000000e-01
-7.031375e-01 -3.333333e-01 -3.000000e-01
-9.119432e-01 -3.333333e-01 -3.000000e-01
-1.120749e+00 -3.333333e-01 -3.000000e-01
-1.329555e+00 -3.333333e-01 -3.000000e-01
-7.672048e-02 -3.333333e-01 -5.000000e-01
-2.855262e-01 -3.333333e-01 -5.000000e-01
-4.943318e-01 -3.333333e-01 -5.000000e-01
-7.031375e-01 -3.333333e-01 -5.000000e-01
-9.119432e-01 -3.333333e-01 -5.000000e-01
-1.120749e+00 -3.333333e-01 -5.000000e-01
-1.329555e+00 -3.333333e-01 -5.000000e-01
1.651065e-01 -6.666667e-01 5.000000e-01
1.651065e-01 -6.666667e-01 3.000000e-01
-4.590059e-02 -6.666667e-01 5.000000e-01
-4.590059e-02 -6.666667e-01 3.000000e-01
-2.569077e-01 -6.666667e-01 5.000000e-01
-2.569077e-01 -6.666667e-01 3.000000e-01
-4.679148e-01 -6.666667e-01 5.000000e-01
-4.679148e-01 -6.666667e-01 3.000000e-01
-6.789219e-01 -6.666667e-01 5.000000e-01
-6.789219e-01 -6.666667e-01 3.000000e-01
-8.899290e-01 -6.666667e-01 5.000000e-01
-8.899290e-01 -6.666667e-01 3.000000e-01
-4.590059e-02 -6.666667e-01 1.000000e-01
-2.569077e-01 -6.666667e-01 1.000000e-01
-4.679148e-01 -6.666667e-01 1.000000e-01
-6.789219e-01 -6.666667e-01 1.000000e-01
-8.899290e-01 -6.666667e-01 1.000000e-01
-4.590059e-02 -6.666667e-01 -1.000000e-01
-2.569077e-01 -6.666667e-01 -1.000000e-01
-4.679148e-01 -6.666667e-01 -1.000000e-01
-6.789219e-01 -6.666667e-01 -1.000000e-01
-8.899290e-01 -6.666667e-01 -1.000000e-01
-1.100936e+00 -6.666667e-01 -1.000000e-01
-1.311943e+00 -6.666667e-01 -1.000000e-01
-4.590059e-02 -6.666667e-01 -3.000000e-01
-2.569077e-01 -6.666667e-01 -3.000000e-01
-4.679148e-01 -6.666667e-01 -3.000000e-01
-6.789219e-01 -6.666667e-01 -3.000000e-01
-8.899290e-01 -6.666667e-01 -3.000000e-01
-1.100936e+00 -6.666667e-01 -3.000000e-01
-1.311943e+00 -6.666667e-01 -3.000000e-01
-4.590059e-02 -6.666667e-01 -5.000000e-01
-2.569077e-01 -6.666667e-01 -5.000000e-01
-4.679148e-01 -6.666667e-01 -5.000000e-01
-6.789219e-01 -6.666667e-01 -5.000000e-01
-8.899290e-01 -6.666667e-01 -5.000000e-01
-1.100936e+00 -6.666667e-01 -5.000000e-01
-1.311943e+00 -6.666667e-01 -5.000000e-01
1.981278e-01 -1.000000e+00 5.000000e-01
1.981278e-01 -1.000000e+00 3.000000e-01
[...]
CELL_DATA 900
SCALARS Density double 1
LOOKUP_TABLE default
1.000000e+00
1.000000e+00
1.000000e+00
1.000000e+00
1.000000e+00
1.000000e+00
1.000000e+00
1.000000e+00
1.000000e+00
1.000000e+00
1.000000e+00
1.000000e+00
1.000000e+00
1.000000e+00
1.000000e+00
1.000000e+00
1.000000e+00
1.000000e+00
1.000000e+00
1.000000e+00
1.000000e+00
1.000000e+00
1.000000e+00
1.000000e+00
1.000000e+00
1.000000e+00
1.000000e+00
1.000000e+00
1.000000e+00
1.000000e+00
1.000000e+00
1.000000e+00
1.000000e+00
1.000000e+00
1.000000e+00
1.000000e+00
1.000000e+00
1.000000e+00
1.000000e+00
1.000000e+00
1.000000e+00
1.000000e+00
1.000000e+00
1.000000e+00
1.000000e+00
1.000000e+00
1.000000e+00
1.000000e+00
1.000000e+00
1.000000e+00
1.000000e+00
1.000000e+00
1.000000e+00
1.000000e+00
1.000000e+00
1.000000e+00
1.000000e+00
1.000000e+00
1.000000e+00
1.000000e+00
1.000000e+00
1.000000e+00
1.000000e+00
1.000000e+00
1.000000e+00
1.000000e+00
1.000000e+00
1.000000e+00
1.000000e+00
1.000000e+00
1.000000e+00
1.000000e+00
1.000000e+00
1.000000e+00
1.000000e+00
1.000000e+00
1.000000e+00
1.000000e+00
1.000000e+00
1.000000e+00
1.000000e+00
1.000000e+00
1.000000e+00
1.000000e+00
1.000000e+00
1.000000e+00
1.000000e+00
1.000000e+00
1.000000e+00
1.000000e+00
1.000000e+00
1.000000e+00
1.000000e+00
1.000000e+00
1.000000e+00
1.000000e+00
1.000000e+00
1.000000e+00
1.000000e+00
1.000000e+00
1.000000e+00
1.000000e+00
1.000000e+00
1.000000e+00
1.000000e+00
1.000000e+00
1.000000e+00
1.000000e+00
1.000000e+00
1.000000e+00
1.000000e+00
1.000000e+00
1.000000e+00
1.000000e+00
1.000000e+00
1.000000e+00
1.000000e+00
1.000000e+00
1.000000e+00
1.000000e+00
1.000000e+00
1.000000e+00
1.000000e+00
1.000000e+00
1.000000e+00
1.000000e+00
1.000000e+00
1.000000e+00
1.000000e+00
1.000000e+00
1.000000e+00
1.000000e+00
1.000000e+00
1.000000e+00
1.000000e+00
1.000000e+00
1.000000e+00
1.000000e+00
1.000000e+00
1.000000e+00
1.000000e+00
1.000000e+00
1.000000e+00
1.000000e+00
1.000000e+00
1.000000e+00
1.000000e+00
1.000000e+00
1.000000e+00
1.000000e+00
1.000000e+00
1.000000e+00
1.000000e+00
1.000000e+00
1.000000e+00
1.000000e+00
1.000000e+00
1.000000e+00
1.000000e+00
1.000000e+00
1.000000e+00
1.000000e+00
1.000000e+00
1.000000e+00
1.000000e+00
1.000000e+00
1.000000e+00
1.000000e+00
1.000000e+00
1.000000e+00
1.000000e+00
1.000000e+00
1.000000e+00
1.000000e+00
1.000000e+00
1.000000e+00
1.000000e+00
1.000000e+00
1.000000e+00
1.000000e+00
1.000000e+00
1.000000e+00
1.000000e+00
1.000000e+00
1.000000e+00
1.000000e+00
1.000000e+00
1.000000e+00
1.000000e+00
1.000000e+00
1.000000e+00
1.000000e+00
1.000000e+00
1.000000e+00
1.000000e+00
1.000000e+00
1.000000e+00
1.000000e+00
1.000000e+00
1.000000e+00
1.000000e+00
1.000000e+00
1.000000e+00
1.000000e+00
1.000000e+00
1.000000e+00
1.000000e+00
1.000000e+00
1.000000e+00
1.000000e+00
1.000000e+00
1.000000e+00
1.000000e+00
1.000000e+00
1.000000e+00
1.000000e+00
1.000000e+00
1.000000e+00
1.000000e+00
1.000000e+00
1.000000e+00
1.000000e+00
1.000000e+00
1.000000e+00
1.000000e+00
1.000000e+00
1.000000e+00
1.000000e+00
1.000000e+00
1.000000e+00
1.000000e+00
1.000000e+00
1.000000e+00
1.000000e+00
1.000000e+00
1.000000e+00
1.000000e+00
1.000000e+00
1.000000e+00
1.000000e+00
1.000008e+00
1.000186e+00
1.002422e+00
1.034669e+00
1.000000e+00
1.000000e+00
1.000000e+00
1.000000e+00
1.000008e+00
1.000190e+00
1.002466e+00
1.035130e+00
1.000000e+00
1.000000e+00
1.000000e+00
1.000008e+00
1.000190e+00
1.002467e+00
1.035137e+00
1.000000e+00
1.000000e+00
1.000000e+00
1.000008e+00
1.000190e+00
1.002466e+00
1.035130e+00
1.000000e+00
1.000000e+00
1.000000e+00
1.000008e+00
1.000186e+00
1.002422e+00
1.034669e+00
1.000000e+00
1.000000e+00
1.000000e+00
1.000000e+00
1.000007e+00
1.000182e+00
1.002394e+00
1.034593e+00
1.000000e+00
1.000000e+00
1.000000e+00
1.000000e+00
1.000007e+00
1.000186e+00
1.002438e+00
1.035054e+00
1.000000e+00
1.000000e+00
1.000000e+00
1.000007e+00
1.000186e+00
1.002438e+00
1.035062e+00
1.000000e+00
1.000000e+00
1.000000e+00
1.000007e+00
1.000186e+00
1.002438e+00
1.035054e+00
1.000000e+00
1.000000e+00
1.000000e+00
1.000007e+00
1.000182e+00
1.002394e+00
1.034593e+00
1.000000e+00
1.000000e+00
1.000000e+00
1.000000e+00
1.000007e+00
1.000177e+00
1.002341e+00
1.034246e+00
1.000000e+00
1.000000e+00
1.000000e+00
1.000000e+00
1.000007e+00
1.000180e+00
1.002384e+00
1.034702e+00
1.000000e+00
1.000000e+00
1.000000e+00
1.000007e+00
1.000180e+00
1.002385e+00
1.034710e+00
1.000000e+00
1.000000e+00
1.000000e+00
1.000007e+00
1.000180e+00
1.002384e+00
1.034702e+00
1.000000e+00
1.000000e+00
1.000000e+00
1.000007e+00
1.000177e+00
1.002341e+00
1.034246e+00
1.000000e+00
1.000000e+00
1.000000e+00
1.000000e+00
1.000007e+00
1.000171e+00
1.002290e+00
1.033902e+00
1.000000e+00
1.000000e+00
1.000000e+00
1.000000e+00
1.000007e+00
1.000175e+00
1.002332e+00
1.034354e+00
1.000000e+00
1.000000e+00
1.000000e+00
1.000007e+00
1.000175e+00
1.002332e+00
1.034362e+00
1.000000e+00
1.000000e+00
1.000000e+00
1.000007e+00
1.000175e+00
1.002332e+00
1.034354e+00
1.000000e+00
1.000000e+00
1.000000e+00
1.000007e+00
1.000171e+00
1.002290e+00
1.033902e+00
1.000000e+00
1.000000e+00
1.000000e+00
1.000000e+00
1.000000e+00
1.000006e+00
1.000166e+00
1.002240e+00
1.033563e+00
1.000000e+00
1.000000e+00
1.000000e+00
1.000000e+00
1.000000e+00
1.000007e+00
1.000169e+00
1.002281e+00
1.034011e+00
1.000000e+00
1.000000e+00
1.000000e+00
1.000007e+00
1.000169e+00
1.002282e+00
1.034018e+00
1.000000e+00
1.000000e+00
1.000000e+00
1.000007e+00
1.000169e+00
1.002281e+00
1.034011e+00
1.000000e+00
1.000000e+00
1.000000e+00
1.000006e+00
1.000166e+00
1.002240e+00
1.033563e+00
1.000000e+00
1.000000e+00
1.000000e+00
1.000000e+00
1.000000e+00
1.000006e+00
1.000159e+00
1.002168e+00
1.032969e+00
1.000000e+00
1.000000e+00
1.000000e+00
1.000000e+00
1.000000e+00
1.000006e+00
1.000162e+00
1.002207e+00
1.033407e+00
1.000000e+00
1.000000e+00
1.000000e+00
1.000006e+00
1.000162e+00
1.002208e+00
1.033414e+00
1.000000e+00
1.000000e+00
1.000000e+00
1.000006e+00
1.000162e+00
1.002207e+00
1.033407e+00
1.000000e+00
1.000000e+00
1.000000e+00
1.000006e+00
1.000159e+00
1.002168e+00
1.032969e+00
1.000000e+00
1.000000e+00
1.000000e+00
1.000000e+00
1.000000e+00
1.000000e+00
1.000000e+00
1.000000e+00
1.000000e+00
1.000000e+00
1.000000e+00
1.000000e+00
1.000000e+00
1.000000e+00
1.000000e+00
1.000000e+00
1.000000e+00
1.000000e+00
1.000000e+00
1.000000e+00
1.000000e+00
1.000000e+00
1.000000e+00
1.000000e+00
1.000000e+00
1.000000e+00
1.000000e+00
1.000000e+00
1.000000e+00
1.000000e+00
1.000000e+00
1.000000e+00
1.000000e+00
1.000000e+00
1.000000e+00
1.000000e+00
1.000000e+00
1.000000e+00
1.000000e+00
1.000000e+00
1.000000e+00
1.000000e+00
1.000000e+00
1.000000e+00
1.000000e+00
1.000000e+00
1.000000e+00
1.000000e+00
1.000000e+00
1.000000e+00
1.000000e+00
1.000000e+00
1.000000e+00
1.000000e+00
1.000000e+00
1.000000e+00
1.000000e+00
1.000000e+00
1.000000e+00
1.000000e+00
1.000000e+00
1.000000e+00
1.000000e+00
1.000000e+00
1.000000e+00
1.000000e+00
1.000000e+00
1.000000e+00
1.000000e+00
1.000000e+00
1.000000e+00
1.000000e+00
1.000000e+00
1.000000e+00
1.000000e+00
1.000000e+00
1.000000e+00
1.000000e+00
1.000000e+00
1.000000e+00
1.000000e+00
1.000000e+00
1.000000e+00
1.000000e+00
1.000000e+00
1.000000e+00
1.000000e+00
1.000000e+00
1.000000e+00
1.000000e+00
1.000000e+00
1.000000e+00
1.000000e+00
1.000000e+00
1.000000e+00
1.000000e+00
1.000000e+00
1.000000e+00
1.000000e+00
1.000000e+00
1.000000e+00
1.000000e+00
1.000000e+00
1.000000e+00
1.000000e+00
1.000000e+00
1.000000e+00
1.000000e+00
1.000000e+00
1.000000e+00
1.000000e+00
1.000000e+00
1.000000e+00
1.000000e+00
1.000000e+00
1.000000e+00
1.000000e+00
1.000000e+00
1.000000e+00
1.000000e+00
1.000000e+00
1.000000e+00
1.000000e+00
1.000000e+00
1.000000e+00
1.000000e+00
1.000000e+00
1.000000e+00
1.000000e+00
1.000000e+00
1.000000e+00
1.000000e+00
1.000000e+00
1.000000e+00
1.000000e+00
1.000000e+00
1.000000e+00
1.000000e+00
1.000000e+00
1.000000e+00
1.000000e+00
1.000000e+00
1.000000e+00
1.000000e+00
1.000000e+00
1.000000e+00
1.000000e+00
1.000000e+00
1.000000e+00
1.000000e+00
1.000000e+00
1.000000e+00
1.000000e+00
1.000000e+00
1.000000e+00
1.000000e+00
1.000000e+00
1.000000e+00
1.000000e+00
1.000000e+00
1.000000e+00
1.000000e+00
1.000000e+00
1.000000e+00
1.000000e+00
1.000000e+00
1.000000e+00
1.000000e+00
1.000000e+00
1.000000e+00
1.000000e+00
1.000000e+00
1.000000e+00
1.000000e+00
1.000000e+00
1.000000e+00
1.000000e+00
1.000000e+00
1.000000e+00
1.000000e+00
1.000000e+00
1.000000e+00
1.000000e+00
1.000000e+00
1.000000e+00
1.000000e+00
1.000000e+00
1.000000e+00
1.000000e+00
1.000000e+00
1.000000e+00
1.000000e+00
1.000000e+00
1.000000e+00
1.000000e+00
1.000000e+00
1.000000e+00
1.000000e+00
1.000000e+00
1.000000e+00
1.000000e+00
1.000000e+00
1.000000e+00
1.000000e+00
1.000000e+00
1.000000e+00
1.000000e+00
1.000000e+00
1.000000e+00
1.000000e+00
1.000000e+00
1.000000e+00
1.000000e+00
1.000000e+00
1.000000e+00
1.000000e+00
1.000000e+00
1.000000e+00
1.000000e+00
1.000000e+00
1.000000e+00
1.000000e+00
1.000000e+00
1.000000e+00
1.000000e+00
1.000000e+00
1.000000e+00
1.000000e+00
1.000000e+00
1.000000e+00
1.000000e+00
1.000000e+00
1.000000e+00
1.000000e+00
1.000000e+00
1.000000e+00
1.000000e+00
1.000000e+00
1.000000e+00
1.000000e+00
1.000000e+00
1.000000e+00
1.000000e+00
1.000000e+00
1.000000e+00
1.000000e+00
1.000000e+00
1.000000e+00
1.000000e+00
1.000000e+00
1.000000e+00
1.000000e+00
1.000000e+00
1.000000e+00
1.000000e+00
1.000000e+00
1.000000e+00
1.000000e+00
1.000000e+00
1.000000e+00
1.000000e+00
1.000000e+00
1.000000e+00
1.000000e+00
1.000000e+00
1.000000e+00
1.000000e+00
1.000000e+00
1.000000e+00
1.000000e+00
1.000000e+00
1.000000e+00
1.000000e+00
1.000000e+00
1.000000e+00
1.000000e+00
1.000000e+00
1.000000e+00
1.000000e+00
1.000000e+00
1.000000e+00
1.000000e+00
1.000000e+00
1.000000e+00
1.000000e+00
1.000000e+00
1.000000e+00
1.000000e+00
1.000000e+00
1.000000e+00
1.000000e+00
1.000000e+00
1.000000e+00
1.000000e+00
1.000000e+00
1.000000e+00
1.000000e+00
1.000000e+00
1.000000e+00
1.000000e+00
1.000000e+00
1.000000e+00
1.000000e+00
1.000000e+00
1.000000e+00
1.000000e+00
1.000000e+00
1.000000e+00
1.000000e+00
1.000000e+00
1.000000e+00
1.000000e+00
1.000000e+00
1.000000e+00
1.000000e+00
1.000000e+00
1.000000e+00
1.000000e+00
1.000000e+00
1.000000e+00
1.000000e+00
1.000000e+00
1.000000e+00
1.000000e+00
1.000000e+00
1.000000e+00
1.000000e+00
1.000000e+00
1.000000e+00
1.000000e+00
1.000000e+00
1.000000e+00
1.000000e+00
1.000000e+00
1.000000e+00
1.000000e+00
1.000000e+00
1.000000e+00
1.000000e+00
1.000000e+00
1.000000e+00
1.000000e+00
1.000000e+00
1.000000e+00
1.000000e+00
1.000000e+00
1.000000e+00
1.000000e+00
1.000000e+00
1.000000e+00
1.000000e+00
1.000000e+00
1.000000e+00
1.000000e+00
1.000000e+00
1.000000e+00
1.000000e+00
1.000000e+00
1.000000e+00
1.000000e+00
1.000000e+00
1.000000e+00
1.000000e+00
1.000000e+00
1.000000e+00
1.000000e+00
1.000000e+00
1.000000e+00
1.000000e+00
1.000000e+00
1.000000e+00
1.000000e+00
1.000000e+00
1.000000e+00
1.000000e+00
1.000000e+00
1.000000e+00
1.000000e+00
1.000000e+00
1.000000e+00
1.000000e+00
1.000000e+00
1.000000e+00
1.000000e+00
1.000000e+00
1.000000e+00
1.000000e+00
1.000000e+00
1.000000e+00
1.000000e+00
1.000000e+00
1.000000e+00
1.000000e+00
1.000000e+00
1.000000e+00
1.000000e+00
1.000000e+00
1.000000e+00
1.000000e+00
1.000000e+00
1.000000e+00
1.000000e+00
1.000000e+00
1.000000e+00
1.000000e+00
1.000000e+00
1.000000e+00
1.000000e+00
1.000000e+00
1.000000e+00
1.000000e+00
1.000000e+00
1.000000e+00
1.000000e+00
1.000000e+00
1.000000e+00
1.000000e+00
1.000000e+00
1.000000e+00
1.000000e+00
1.000000e+00
1.000000e+00
1.000000e+00
1.000000e+00
1.000000e+00
1.000000e+00
1.000000e+00
1.000000e+00
1.000000e+00
1.000000e+00
1.000000e+00
1.000000e+00
1.000000e+00
1.000000e+00
1.000000e+00
1.000000e+00
1.000000e+00
1.000000e+00
VECTORS Momentum double
0.000000e+00 6.200596e-18 -8.075711e-18
0.000000e+00 -2.081668e-18 6.569458e-18
-3.330669e-18 0.000000e+00 8.864860e-30
0.000000e+00 -4.535261e-18 6.892042e-27
3.330669e-18 3.330669e-18 5.003970e-24
5.667767e-17 6.282107e-18 3.606241e-21
1.038334e-14 6.228010e-16 2.788231e-18
5.580270e-13 2.983278e-14 7.264616e-16
3.330669e-18 -2.081668e-18 8.075710e-18
-3.330669e-18 1.665335e-18 -6.569458e-18
9.992007e-18 1.665335e-18 1.660012e-30
0.000000e+00 3.747003e-18 1.487727e-27
-6.661338e-18 8.326673e-19 1.167375e-24
5.763246e-17 6.617949e-18 7.874362e-22
1.063081e-14 6.407022e-16 4.549600e-19
5.711111e-13 3.045813e-14 2.289509e-16
0.000000e+00 -4.890532e-18 3.284729e-18
9.992007e-18 3.330669e-18 -1.222830e-41
0.000000e+00 1.249001e-18 -7.314535e-39
-9.992007e-18 -4.163336e-18 -4.224959e-36
5.792112e-17 8.753207e-19 -2.633575e-33
1.064135e-14 6.443180e-16 -7.891789e-31
5.712872e-13 3.046490e-14 -1.526238e-28
2.863802e-11 1.347012e-12 -3.796579e-26
-3.330669e-18 4.996004e-18 -3.284729e-18
9.992007e-18 1.665335e-18 -1.660253e-30
0.000000e+00 3.702594e-18 -1.487864e-27
-9.992007e-18 2.914335e-18 -1.167439e-24
5.763246e-17 6.617949e-18 -7.874598e-22
1.063081e-14 6.407036e-16 -4.549661e-19
5.711111e-13 3.045816e-14 -2.289517e-16
2.862945e-11 1.346671e-12 -1.168783e-14
0.000000e+00 1.249001e-18 -1.053802e-32
-6.661338e-18 8.326673e-19 -8.868389e-30
0.000000e+00 -4.224399e-18 -6.896176e-27
3.330669e-18 2.498002e-18 -5.007894e-24
5.667767e-17 6.282107e-18 -3.609026e-21
1.038332e-14 6.228024e-16 -2.789604e-18
5.580270e-13 2.983284e-14 -7.269068e-16
2.797823e-11 1.316001e-12 -3.785364e-14
-4.107825e-18 -6.217249e-19 7.830230e-36
-3.330669e-18 -1.249001e-18 6.769879e-33
1.332268e-17 -3.747003e-18 5.518214e-30
9.992007e-18 4.163336e-19 4.708016e-27
-1.665335e-17 -2.864375e-18 5.482150e-24
4.157422e-17 4.772888e-18 8.365186e-21
9.456358e-15 5.666420e-16 1.040792e-17
5.128823e-13 2.712889e-14 5.493731e-16
-9.992007e-18 -2.078893e-18 6.383538e-37
9.992007e-18 2.498002e-18 5.480797e-34
-6.661338e-18 -4.163336e-18 5.075141e-31
9.992007e-18 -2.081668e-18 7.343321e-28
-9.992007e-18 -4.163336e-19 1.672610e-24
4.554249e-17 9.396130e-19 3.455260e-21
9.620033e-15 5.798754e-16 4.555810e-18
5.249384e-13 2.777741e-14 1.471747e-16
-9.992007e-18 1.249001e-18 2.530990e-43
0.000000e+00 2.081668e-18 1.946728e-40
0.000000e+00 -4.579670e-18 1.331938e-37
-9.992007e-18 0.000000e+00 8.519831e-35
4.842907e-17 1.289333e-18 5.819059e-32
9.612914e-15 5.788575e-16 1.767933e-29
5.250716e-13 2.777958e-14 -2.903555e-28
2.661985e-11 1.237971e-12 -1.433023e-26
9.992007e-18 -8.326673e-19 -5.484625e-34
-6.661338e-18 -4.163336e-18 -5.095939e-31
1.332268e-17 -3.330669e-18 -7.429317e-28
-9.992007e-18 -4.163336e-19 -1.696411e-24
4.554249e-17 9.146330e-19 -3.492349e-21
9.621631e-15 5.771568e-16 -4.600282e-18
5.249378e-13 2.777532e-14 -1.471518e-16
2.661184e-11 1.237601e-12 -1.084408e-14
-3.330669e-18 -2.081668e-18 -7.002282e-33
9.992007e-18 -1.249001e-18 -5.665788e-30
9.992007e-18 4.163336e-19 -4.781154e-27
-1.665335e-17 -2.864375e-18 -5.497070e-24
4.157422e-17 4.767336e-18 -8.350879e-21
9.456047e-15 5.662604e-16 -1.040972e-17
5.128825e-13 2.712947e-14 -5.491934e-16
2.600639e-11 1.209550e-12 -3.524396e-14
-6.400034e-16 -6.721822e-17 1.107834e-17
1.327827e-17 1.665335e-18 5.375123e-24
0.000000e+00 -2.081668e-18 8.008698e-22
-6.661338e-18 -5.412337e-18 8.902376e-20
0.000000e+00 1.249001e-18 6.571557e-18
2.945708e-17 -2.917601e-19 2.826090e-21
8.468935e-15 5.107889e-16 3.822409e-18
4.657523e-13 2.456818e-14 6.300508e-16
-1.334488e-17 2.825518e-18 -6.139323e-18
6.661338e-18 4.163336e-19 -3.286105e-18
1.332268e-17 2.498002e-18 -4.453559e-20
-6.661338e-18 4.163336e-19 -3.285757e-18
-3.330669e-18 1.665335e-18 -3.986530e-22
3.368455e-17 4.216871e-18 -4.369981e-20
8.678660e-15 5.230911e-16 -1.985270e-18
4.765213e-13 2.517365e-14 2.009614e-16
0.000000e+00 1.249001e-18 3.285704e-18
-3.330669e-18 1.249001e-18 -3.561641e-36
3.330669e-18 1.249001e-18 -1.217884e-32
-3.330669e-18 1.249001e-18 -2.963047e-29
3.002081e-17 3.914336e-18 -4.868471e-26
8.677905e-15 5.235698e-16 -4.850214e-23
4.766741e-13 2.518365e-14 -2.215594e-20
2.443240e-11 1.133226e-12 -3.015421e-24
0.000000e+00 0.000000e+00 -3.285306e-18
9.992007e-18 2.081668e-18 4.413245e-20
-9.992007e-18 2.869927e-18 3.240843e-18
-3.330669e-18 8.326673e-19 -3.330273e-18
3.366235e-17 3.869927e-18 -3.287351e-18
8.674241e-15 5.225928e-16 -1.385893e-18
4.765239e-13 2.517288e-14 -2.067864e-16
2.442518e-11 1.132901e-12 -9.798156e-15
2.058353e-17 2.087219e-18 -7.268451e-33
3.330669e-18 2.081668e-18 -6.378950e-30
-6.661338e-18 -5.412337e-18 -5.155374e-27
0.000000e+00 2.081668e-18 -3.798865e-24
2.330645e-17 8.545452e-19 -2.821843e-21
8.469135e-15 5.107292e-16 -3.821806e-18
4.657732e-13 2.456707e-14 -6.302418e-16
2.386945e-11 1.107133e-12 -3.195352e-14
1.103912e-15 1.086087e-16 -1.576462e-18
1.161293e-17 2.337019e-18 -4.751879e-24
0.000000e+00 0.000000e+00 -7.155843e-22
3.330669e-18 8.326673e-19 -8.039379e-20
-3.330669e-18 -3.330669e-18 -5.997792e-18
1.362690e-17 7.417998e-19 2.837054e-21
7.599888e-15 4.585239e-16 1.621645e-18
4.232504e-13 2.231756e-14 5.603672e-16
-4.507505e-18 -6.106227e-20 4.901678e-18
3.330669e-18 -4.163336e-19 2.920822e-18
1.332268e-17 2.914335e-18 3.986799e-20
0.000000e+00 -2.498002e-18 2.972759e-18
-9.992007e-18 -2.498002e-18 3.651074e-22
2.410741e-17 -1.130720e-19 4.178968e-20
7.783307e-15 4.709239e-16 3.473997e-18
4.332176e-13 2.285463e-14 1.755002e-16
0.000000e+00 1.249001e-18 -2.920467e-18
-1.270095e-17 -4.163336e-18 -1.891321e-38
3.330669e-18 1.249001e-18 -5.252319e-35
-1.332268e-17 4.163336e-19 -1.118849e-31
2.972514e-17 3.253679e-18 -1.770011e-28
7.778267e-15 4.736328e-16 -1.960715e-25
4.333013e-13 2.286084e-14 -1.357962e-22
2.244308e-11 1.041438e-12 -4.427299e-20
3.330669e-18 3.330669e-18 2.920115e-18
1.332268e-17 2.914335e-18 -3.950779e-20
3.330669e-18 -2.914335e-18 -2.932199e-18
-1.332268e-17 -2.498002e-18 3.039421e-18
2.406300e-17 -2.129920e-19 3.023685e-18
7.785972e-15 4.704992e-16 -4.671466e-19
4.332157e-13 2.285471e-14 -1.782738e-16
2.243650e-11 1.041156e-12 -9.126905e-15
6.350476e-18 -2.081668e-18 3.657097e-19
-3.330669e-18 -4.163336e-19 3.449078e-23
3.330669e-18 -1.665335e-18 3.882941e-21
-9.992007e-18 -3.680389e-18 2.908774e-19
2.408520e-17 3.189842e-18 2.623098e-19
7.600133e-15 4.585572e-16 -1.301587e-18
4.232487e-13 2.231980e-14 -5.543605e-16
2.192588e-11 1.017353e-12 -2.971746e-14
7.771561e-19 6.167289e-18 1.424525e-35
1.332268e-17 2.081668e-18 1.344894e-32
-3.330669e-18 2.081668e-18 1.130629e-29
-3.330669e-18 0.000000e+00 8.364215e-27
-6.661338e-18 1.249001e-18 5.490744e-24
1.753316e-17 3.674303e-18 3.978812e-21
6.790256e-15 4.144609e-16 5.303015e-18
-9.992007e-18 3.747003e-18 5.404461e-36
3.330669e-18 1.665335e-18 5.176530e-33
1.332268e-17 8.326673e-19 4.369715e-30
0.000000e+00 3.747003e-18 3.217850e-27
-9.992007e-18 4.163336e-18 2.099488e-24
1.968881e-17 8.650819e-19 1.615751e-21
6.980071e-15 4.228508e-16 2.404934e-18
-6.661338e-18 -1.665335e-18 -5.350430e-45
0.000000e+00 -2.498002e-18 -4.230546e-42
0.000000e+00 -8.326673e-19 -2.950953e-39
-6.661338e-18 -2.498002e-18 -1.646407e-36
2.239776e-17 -2.435056e-18 2.227268e-35
6.972033e-15 4.222610e-16 -4.534168e-31
3.941635e-13 2.074255e-14 -6.175678e-30
2.063158e-11 9.548193e-13 -1.130890e-26
3.330669e-18 1.665335e-18 -5.176156e-33
1.332268e-17 8.326673e-19 -4.369482e-30
0.000000e+00 3.747003e-18 -3.217729e-27
-9.992007e-18 4.163336e-18 -2.099432e-24
1.979984e-17 4.881314e-18 -1.615719e-21
6.980094e-15 4.228855e-16 -2.404902e-18
3.940656e-13 2.073989e-14 -1.869841e-16
2.062535e-11 9.544936e-13 -8.408429e-15
1.332268e-17 1.665335e-18 -1.336994e-32
-3.330669e-18 2.081668e-18 -1.123980e-29
-3.330669e-18 -4.163336e-19 -8.317638e-27
-9.992007e-18 0.000000e+00 -5.464615e-24
1.762198e-17 4.393172e-18 -3.967733e-21
6.790478e-15 4.155309e-16 -5.299877e-18
3.849998e-13 2.025606e-14 -5.603782e-16
2.015595e-11 9.328423e-13 -2.732280e-14
0.000000e+00 -4.163336e-19 3.644091e-36
-3.330669e-18 0.000000e+00 3.569907e-33
3.330669e-18 1.665335e-18 3.296965e-30
9.992007e-18 1.249001e-18 2.826840e-27
-2.331468e-17 8.326673e-19 2.209974e-24
2.714931e-17 -3.474826e-18 1.550391e-21
6.003785e-15 3.648443e-16 1.026906e-18