# vtk DataFile Version 2.0
Simplicial Mesh Example
ASCII
DATASET UNSTRUCTURED_GRID
POINTS 1302 double
0.000000e+00 1.000000e+00 5.000000e-01
-5.551115e-17 1.000000e+00 3.000000e-01
3.302130e-02 6.666667e-01 5.000000e-01
3.302130e-02 6.666667e-01 3.000000e-01
-2.000000e-01 1.000000e+00 5.000000e-01
-2.000000e-01 1.000000e+00 3.000000e-01
-1.691801e-01 6.666667e-01 5.000000e-01
-1.691801e-01 6.666667e-01 3.000000e-01
-4.000000e-01 1.000000e+00 5.000000e-01
-4.000000e-01 1.000000e+00 3.000000e-01
-3.713816e-01 6.666667e-01 5.000000e-01
-3.713816e-01 6.666667e-01 3.000000e-01
-6.000000e-01 1.000000e+00 5.000000e-01
-6.000000e-01 1.000000e+00 3.000000e-01
-5.735829e-01 6.666667e-01 5.000000e-01
-5.735829e-01 6.666667e-01 3.000000e-01
-8.000000e-01 1.000000e+00 5.000000e-01
-8.000000e-01 1.000000e+00 3.000000e-01
-7.757844e-01 6.666667e-01 5.000000e-01
-7.757844e-01 6.666667e-01 3.000000e-01
-1.000000e+00 1.000000e+00 5.000000e-01
-1.000000e+00 1.000000e+00 3.000000e-01
-9.779858e-01 6.666667e-01 5.000000e-01
-9.779858e-01 6.666667e-01 3.000000e-01
-1.200000e+00 1.000000e+00 5.000000e-01
-1.200000e+00 1.000000e+00 3.000000e-01
-1.180187e+00 6.666667e-01 5.000000e-01
-1.180187e+00 6.666667e-01 3.000000e-01
-2.000000e-01 1.000000e+00 1.000000e-01
-1.691801e-01 6.666667e-01 1.000000e-01
-4.000000e-01 1.000000e+00 1.000000e-01
-3.713816e-01 6.666667e-01 1.000000e-01
-6.000000e-01 1.000000e+00 1.000000e-01
-5.735829e-01 6.666667e-01 1.000000e-01
-8.000000e-01 1.000000e+00 1.000000e-01
-7.757844e-01 6.666667e-01 1.000000e-01
-1.000000e+00 1.000000e+00 1.000000e-01
-9.779858e-01 6.666667e-01 1.000000e-01
-1.200000e+00 1.000000e+00 1.000000e-01
-1.180187e+00 6.666667e-01 1.000000e-01
-2.000000e-01 1.000000e+00 -1.000000e-01
-1.691801e-01 6.666667e-01 -1.000000e-01
-4.000000e-01 1.000000e+00 -1.000000e-01
-3.713816e-01 6.666667e-01 -1.000000e-01
-6.000000e-01 1.000000e+00 -1.000000e-01
-5.735829e-01 6.666667e-01 -1.000000e-01
-8.000000e-01 1.000000e+00 -1.000000e-01
-7.757844e-01 6.666667e-01 -1.000000e-01
-1.000000e+00 1.000000e+00 -1.000000e-01
-9.779858e-01 6.666667e-01 -1.000000e-01
-1.200000e+00 1.000000e+00 -1.000000e-01
-1.180187e+00 6.666667e-01 -1.000000e-01
-1.400000e+00 1.000000e+00 -1.000000e-01
-1.382389e+00 6.666667e-01 -1.000000e-01
-2.000000e-01 1.000000e+00 -3.000000e-01
-1.691801e-01 6.666667e-01 -3.000000e-01
-4.000000e-01 1.000000e+00 -3.000000e-01
-3.713816e-01 6.666667e-01 -3.000000e-01
-6.000000e-01 1.000000e+00 -3.000000e-01
-5.735829e-01 6.666667e-01 -3.000000e-01
-8.000000e-01 1.000000e+00 -3.000000e-01
-7.757844e-01 6.666667e-01 -3.000000e-01
-1.000000e+00 1.000000e+00 -3.000000e-01
-9.779858e-01 6.666667e-01 -3.000000e-01
-1.200000e+00 1.000000e+00 -3.000000e-01
-1.180187e+00 6.666667e-01 -3.000000e-01
-1.400000e+00 1.000000e+00 -3.000000e-01
-1.382389e+00 6.666667e-01 -3.000000e-01
-2.000000e-01 1.000000e+00 -5.000000e-01
-1.691801e-01 6.666667e-01 -5.000000e-01
-4.000000e-01 1.000000e+00 -5.000000e-01
-3.713816e-01 6.666667e-01 -5.000000e-01
-6.000000e-01 1.000000e+00 -5.000000e-01
-5.735829e-01 6.666667e-01 -5.000000e-01
-8.000000e-01 1.000000e+00 -5.000000e-01
-7.757844e-01 6.666667e-01 -5.000000e-01
-1.000000e+00 1.000000e+00 -5.000000e-01
-9.779858e-01 6.666667e-01 -5.000000e-01
-1.200000e+00 1.000000e+00 -5.000000e-01
-1.180187e+00 6.666667e-01 -5.000000e-01
-1.400000e+00 1.000000e+00 -5.000000e-01
-1.382389e+00 6.666667e-01 -5.000000e-01
6.604260e-02 3.333333e-01 5.000000e-01
6.604260e-02 3.333333e-01 3.000000e-01
-1.383602e-01 3.333333e-01 5.000000e-01
-1.383602e-01 3.333333e-01 3.000000e-01
-3.427631e-01 3.333333e-01 5.000000e-01
-3.427631e-01 3.333333e-01 3.000000e-01
-5.471659e-01 3.333333e-01 5.000000e-01
-5.471659e-01 3.333333e-01 3.000000e-01
-7.515687e-01 3.333333e-01 5.000000e-01
-7.515687e-01 3.333333e-01 3.000000e-01
-9.559716e-01 3.333333e-01 5.000000e-01
-9.559716e-01 3.333333e-01 3.000000e-01
-1.160374e+00 3.333333e-01 5.000000e-01
-1.160374e+00 3.333333e-01 3.000000e-01
-1.383602e-01 3.333333e-01 1.000000e-01
-3.427631e-01 3.333333e-01 1.000000e-01
-5.471659e-01 3.333333e-01 1.000000e-01
-7.515687e-01 3.333333e-01 1.000000e-01
-9.559716e-01 3.333333e-01 1.000000e-01
-1.160374e+00 3.333333e-01 1.000000e-01
-1.383602e-01 3.333333e-01 -1.000000e-01
-3.427631e-01 3.333333e-01 -1.000000e-01
-5.471659e-01 3.333333e-01 -1.000000e-01
-7.515687e-01 3.333333e-01 -1.000000e-01
-9.559716e-01 3.333333e-01 -1.000000e-01
-1.160374e+00 3.333333e-01 -1.000000e-01
-1.364777e+00 3.333333e-01 -1.000000e-01
-1.383602e-01 3.333333e-01 -3.000000e-01
-3.427631e-01 3.333333e-01 -3.000000e-01
-5.471659e-01 3.333333e-01 -3.000000e-01
-7.515687e-01 3.333333e-01 -3.000000e-01
-9.559716e-01 3.333333e-01 -3.000000e-01
-1.160374e+00 3.333333e-01 -3.000000e-01
-1.364777e+00 3.333333e-01 -3.000000e-01
-1.383602e-01 3.333333e-01 -5.000000e-01
-3.427631e-01 3.333333e-01 -5.000000e-01
-5.471659e-01 3.333333e-01 -5.000000e-01
-7.515687e-01 3.333333e-01 -5.000000e-01
-9.559716e-01 3.333333e-01 -5.000000e-01
-1.160374e+00 3.333333e-01 -5.000000e-01
-1.364777e+00 3.333333e-01 -5.000000e-01
9.906390e-02 -2.775558e-17 5.000000e-01
9.906390e-02 -5.551115e-17 3.000000e-01
-1.075404e-01 0.000000e+00 5.000000e-01
-1.075404e-01 0.000000e+00 3.000000e-01
-3.141446e-01 0.000000e+00 5.000000e-01
-3.141446e-01 0.000000e+00 3.000000e-01
-5.207489e-01 0.000000e+00 5.000000e-01
-5.207489e-01 0.000000e+00 3.000000e-01
-7.273532e-01 -5.551115e-17 5.000000e-01
-7.273532e-01 0.000000e+00 3.000000e-01
-9.339574e-01 0.000000e+00 5.000000e-01
-9.339574e-01 0.000000e+00 3.000000e-01
-1.140562e+00 0.000000e+00 5.000000e-01
-1.140562e+00 0.000000e+00 3.000000e-01
-1.075404e-01 -2.775558e-17 1.000000e-01
-3.141446e-01 0.000000e+00 1.000000e-01
-5.207489e-01 -2.775558e-17 1.000000e-01
-7.273532e-01 0.000000e+00 1.000000e-01
-9.339574e-01 0.000000e+00 1.000000e-01
-1.140562e+00 -2.775558e-17 1.000000e-01
-1.075404e-01 0.000000e+00 -1.000000e-01
-3.141446e-01 0.000000e+00 -1.000000e-01
-5.207489e-01 -2.775558e-17 -1.000000e-01
-7.273532e-01 0.000000e+00 -1.000000e-01
-9.339574e-01 0.000000e+00 -1.000000e-01
-1.140562e+00 -2.775558e-17 -1.000000e-01
-1.347166e+00 0.000000e+00 -1.000000e-01
-1.075404e-01 -2.775558e-17 -3.000000e-01
-3.141446e-01 0.000000e+00 -3.000000e-01
-5.207489e-01 0.000000e+00 -3.000000e-01
-7.273532e-01 -2.775558e-17 -3.000000e-01
-9.339574e-01 -2.775558e-17 -3.000000e-01
-1.140562e+00 -2.775558e-17 -3.000000e-01
-1.347166e+00 -5.551115e-17 -3.000000e-01
-1.075404e-01 0.000000e+00 -5.000000e-01
-3.141446e-01 0.000000e+00 -5.000000e-01
-5.207489e-01 0.000000e+00 -5.000000e-01
-7.273532e-01 0.000000e+00 -5.000000e-01
-9.339574e-01 0.000000e+00 -5.000000e-01
-1.140562e+00 0.000000e+00 -5.000000e-01
-1.347166e+00 -5.551115e-17 -5.000000e-01
1.320852e-01 -3.333333e-01 5.000000e-01
1.320852e-01 -3.333333e-01 3.000000e-01
-7.672048e-02 -3.333333e-01 5.000000e-01
-7.672048e-02 -3.333333e-01 3.000000e-01
-2.855262e-01 -3.333333e-01 5.000000e-01
-2.855262e-01 -3.333333e-01 3.000000e-01
-4.943318e-01 -3.333333e-01 5.000000e-01
-4.943318e-01 -3.333333e-01 3.000000e-01
-7.031375e-01 -3.333333e-01 5.000000e-01
-7.031375e-01 -3.333333e-01 3.000000e-01
-9.119432e-01 -3.333333e-01 5.000000e-01
-9.119432e-01 -3.333333e-01 3.000000e-01
-7.672048e-02 -3.333333e-01 1.000000e-01
-2.855262e-01 -3.333333e-01 1.000000e-01
-4.943318e-01 -3.333333e-01 1.000000e-01
-7.031375e-01 -3.333333e-01 1.000000e-01
-9.119432e-01 -3.333333e-01 1.000000e-01
-7.672048e-02 -3.333333e-01 -1.000000e-01
-2.855262e-01 -3.333333e-01 -1.000000e-01
-4.943318e-01 -3.333333e-01 -1.000000e-01
-7.031375e-01 -3.333333e-01 -1.000000e-01
-9.119432e-01 -3.333333e-01 -1.000000e-01
-1.120749e+00 -3.333333e-01 -1.000000e-01
-1.329555e+00 -3.333333e-01 -1.000000e-01
-7.672048e-02 -3.333333e-01 -3.000000e-01
-2.855262e-01 -3.333333e-01 -3.000000e-01
-4.943318e-01 -3.333333e-01 -3.000000e-01
-7.031375e-01 -3.333333e-01 -3.000000e-01
-9.119432e-01 -3.333333e-01 -3.000000e-01
-1.120749e+00 -3.333333e-01 -3.000000e-01
-1.329555e+00 -3.333333e-01 -3.000000e-01
-7.672048e-02 -3.333333e-01 -5.000000e-01
-2.855262e-01 -3.333333e-01 -5.000000e-01
-4.943318e-01 -3.333333e-01 -5.000000e-01
-7.031375e-01 -3.333333e-01 -5.000000e-01
-9.119432e-01 -3.333333e-01 -5.000000e-01
-1.120749e+00 -3.333333e-01 -5.000000e-01
-1.329555e+00 -3.333333e-01 -5.000000e-01
1.651065e-01 -6.666667e-01 5.000000e-01
1.651065e-01 -6.666667e-01 3.000000e-01
-4.590059e-02 -6.666667e-01 5.000000e-01
-4.590059e-02 -6.666667e-01 3.000000e-01
-2.569077e-01 -6.666667e-01 5.000000e-01
-2.569077e-01 -6.666667e-01 3.000000e-01
-4.679148e-01 -6.666667e-01 5.000000e-01
-4.679148e-01 -6.666667e-01 3.000000e-01
-6.789219e-01 -6.666667e-01 5.000000e-01
-6.789219e-01 -6.666667e-01 3.000000e-01
-8.899290e-01 -6.666667e-01 5.000000e-01
-8.899290e-01 -6.666667e-01 3.000000e-01
-4.590059e-02 -6.666667e-01 1.000000e-01
-2.569077e-01 -6.666667e-01 1.000000e-01
-4.679148e-01 -6.666667e-01 1.000000e-01
-6.789219e-01 -6.666667e-01 1.000000e-01
-8.899290e-01 -6.666667e-01 1.000000e-01
-4.590059e-02 -6.666667e-01 -1.000000e-01
-2.569077e-01 -6.666667e-01 -1.000000e-01
-4.679148e-01 -6.666667e-01 -1.000000e-01
-6.789219e-01 -6.666667e-01 -1.000000e-01
-8.899290e-01 -6.666667e-01 -1.000000e-01
-1.100936e+00 -6.666667e-01 -1.000000e-01
-1.311943e+00 -6.666667e-01 -1.000000e-01
-4.590059e-02 -6.666667e-01 -3.000000e-01
-2.569077e-01 -6.666667e-01 -3.000000e-01
-4.679148e-01 -6.666667e-01 -3.000000e-01
-6.789219e-01 -6.666667e-01 -3.000000e-01
-8.899290e-01 -6.666667e-01 -3.000000e-01
-1.100936e+00 -6.666667e-01 -3.000000e-01
-1.311943e+00 -6.666667e-01 -3.000000e-01
-4.590059e-02 -6.666667e-01 -5.000000e-01
-2.569077e-01 -6.666667e-01 -5.000000e-01
-4.679148e-01 -6.666667e-01 -5.000000e-01
-6.789219e-01 -6.666667e-01 -5.000000e-01
-8.899290e-01 -6.666667e-01 -5.000000e-01
-1.100936e+00 -6.666667e-01 -5.000000e-01
-1.311943e+00 -6.666667e-01 -5.000000e-01
1.981278e-01 -1.000000e+00 5.000000e-01
1.981278e-01 -1.000000e+00 3.000000e-01
[...]
CELL_DATA 900
SCALARS Density double 1
LOOKUP_TABLE default
1.000000e+00
1.000000e+00
1.000000e+00
1.000000e+00
1.000000e+00
1.000000e+00
1.000000e+00
1.000003e+00
1.000000e+00
1.000000e+00
1.000000e+00
1.000000e+00
1.000000e+00
1.000000e+00
1.000000e+00
1.000003e+00
1.000000e+00
1.000000e+00
1.000000e+00
1.000000e+00
1.000000e+00
1.000000e+00
1.000003e+00
1.000021e+00
1.000000e+00
1.000000e+00
1.000000e+00
1.000000e+00
1.000000e+00
1.000000e+00
1.000003e+00
1.000020e+00
1.000000e+00
1.000000e+00
1.000000e+00
1.000000e+00
1.000000e+00
1.000000e+00
1.000003e+00
1.000018e+00
1.000000e+00
1.000000e+00
1.000000e+00
1.000000e+00
1.000000e+00
1.000000e+00
1.000000e+00
1.000003e+00
1.000000e+00
1.000000e+00
1.000000e+00
1.000000e+00
1.000000e+00
1.000000e+00
1.000000e+00
1.000003e+00
1.000000e+00
1.000000e+00
1.000000e+00
1.000000e+00
1.000000e+00
1.000000e+00
1.000003e+00
1.000021e+00
1.000000e+00
1.000000e+00
1.000000e+00
1.000000e+00
1.000000e+00
1.000000e+00
1.000003e+00
1.000020e+00
1.000000e+00
1.000000e+00
1.000000e+00
1.000000e+00
1.000000e+00
1.000000e+00
1.000003e+00
1.000018e+00
1.000000e+00
1.000000e+00
1.000000e+00
1.000000e+00
1.000000e+00
1.000000e+00
1.000000e+00
1.000002e+00
1.000000e+00
1.000000e+00
1.000000e+00
1.000000e+00
1.000000e+00
1.000000e+00
1.000000e+00
1.000003e+00
1.000000e+00
1.000000e+00
1.000000e+00
1.000000e+00
1.000000e+00
1.000000e+00
1.000003e+00
1.000019e+00
1.000000e+00
1.000000e+00
1.000000e+00
1.000000e+00
1.000000e+00
1.000000e+00
1.000003e+00
1.000019e+00
1.000000e+00
1.000000e+00
1.000000e+00
1.000000e+00
1.000000e+00
1.000000e+00
1.000002e+00
1.000017e+00
1.000000e+00
1.000000e+00
1.000000e+00
1.000000e+00
1.000000e+00
1.000000e+00
1.000000e+00
1.000002e+00
1.000000e+00
1.000000e+00
1.000000e+00
1.000000e+00
1.000000e+00
1.000000e+00
1.000000e+00
1.000002e+00
1.000000e+00
1.000000e+00
1.000000e+00
1.000000e+00
1.000000e+00
1.000000e+00
1.000002e+00
1.000018e+00
1.000000e+00
1.000000e+00
1.000000e+00
1.000000e+00
1.000000e+00
1.000000e+00
1.000002e+00
1.000017e+00
1.000000e+00
1.000000e+00
1.000000e+00
1.000000e+00
1.000000e+00
1.000000e+00
1.000002e+00
1.000015e+00
1.000000e+00
1.000000e+00
1.000000e+00
1.000000e+00
1.000000e+00
1.000000e+00
1.000000e+00
1.000000e+00
1.000000e+00
1.000000e+00
1.000000e+00
1.000000e+00
1.000000e+00
1.000000e+00
1.000000e+00
1.000000e+00
1.000000e+00
1.000000e+00
1.000000e+00
1.000000e+00
1.000002e+00
1.000016e+00
1.000000e+00
1.000000e+00
1.000000e+00
1.000000e+00
1.000000e+00
1.000000e+00
1.000002e+00
1.000016e+00
1.000000e+00
1.000000e+00
1.000000e+00
1.000000e+00
1.000000e+00
1.000000e+00
1.000002e+00
1.000014e+00
1.000000e+00
1.000000e+00
1.000000e+00
1.000000e+00
1.000000e+00
1.000000e+00
1.000000e+00
1.000000e+00
1.000000e+00
1.000000e+00
1.000000e+00
1.000000e+00
1.000000e+00
1.000000e+00
1.000000e+00
1.000000e+00
1.000000e+00
1.000000e+00
1.000000e+00
1.000000e+00
1.000002e+00
1.000014e+00
1.000000e+00
1.000000e+00
1.000000e+00
1.000000e+00
1.000000e+00
1.000000e+00
1.000002e+00
1.000013e+00
1.000000e+00
1.000000e+00
1.000000e+00
1.000000e+00
1.000000e+00
1.000000e+00
1.000002e+00
1.000012e+00
1.000018e+00
1.000114e+00
1.000619e+00
1.003008e+00
1.011738e+00
1.037299e+00
1.089706e+00
1.134659e+00
1.000020e+00
1.000130e+00
1.000700e+00
1.003385e+00
1.013122e+00
1.041197e+00
1.097249e+00
1.141019e+00
1.000131e+00
1.000707e+00
1.003417e+00
1.013237e+00
1.041507e+00
1.097783e+00
1.141286e+00
1.000130e+00
1.000700e+00
1.003385e+00
1.013122e+00
1.041197e+00
1.097249e+00
1.141019e+00
1.000114e+00
1.000619e+00
1.003008e+00
1.011738e+00
1.037299e+00
1.089706e+00
1.134659e+00
1.000018e+00
1.000116e+00
1.000632e+00
1.003102e+00
1.012196e+00
1.038991e+00
1.093696e+00
1.138892e+00
1.000020e+00
1.000131e+00
1.000715e+00
1.003492e+00
1.013639e+00
1.043087e+00
1.101627e+00
1.145553e+00
1.000133e+00
1.000722e+00
1.003525e+00
1.013759e+00
1.043413e+00
1.102189e+00
1.145828e+00
1.000131e+00
1.000715e+00
1.003492e+00
1.013639e+00
1.043087e+00
1.101627e+00
1.145553e+00
1.000116e+00
1.000632e+00
1.003102e+00
1.012196e+00
1.038991e+00
1.093696e+00
1.138892e+00
1.000017e+00
1.000108e+00
1.000598e+00
1.002966e+00
1.011784e+00
1.038145e+00
1.092599e+00
1.138644e+00
1.000019e+00
1.000123e+00
1.000676e+00
1.003339e+00
1.013179e+00
1.042158e+00
1.100461e+00
1.145328e+00
1.000124e+00
1.000682e+00
1.003370e+00
1.013296e+00
1.042479e+00
1.101021e+00
1.145609e+00
1.000123e+00
1.000676e+00
1.003339e+00
1.013179e+00
1.042158e+00
1.100461e+00
1.145328e+00
1.000108e+00
1.000598e+00
1.002966e+00
1.011784e+00
1.038145e+00
1.092599e+00
1.138644e+00
1.000015e+00
1.000101e+00
1.000562e+00
1.002823e+00
1.011331e+00
1.037138e+00
1.091128e+00
1.138068e+00
1.000017e+00
1.000114e+00
1.000636e+00
1.003177e+00
1.012672e+00
1.041049e+00
1.098883e+00
1.144753e+00
1.000115e+00
1.000642e+00
1.003207e+00
1.012784e+00
1.041363e+00
1.099438e+00
1.145039e+00
1.000114e+00
1.000636e+00
1.003177e+00
1.012672e+00
1.041049e+00
1.098883e+00
1.144753e+00
1.000101e+00
1.000562e+00
1.002823e+00
1.011331e+00
1.037138e+00
1.091128e+00
1.138068e+00
1.000002e+00
1.000014e+00
1.000093e+00
1.000526e+00
1.002671e+00
1.010834e+00
1.035968e+00
1.089278e+00
1.137148e+00
1.000002e+00
1.000016e+00
1.000106e+00
1.000595e+00
1.003006e+00
1.012117e+00
1.039757e+00
1.096889e+00
1.143810e+00
1.000107e+00
1.000601e+00
1.003034e+00
1.012224e+00
1.040061e+00
1.097436e+00
1.144102e+00
1.000106e+00
1.000595e+00
1.003006e+00
1.012117e+00
1.039757e+00
1.096889e+00
1.143810e+00
1.000093e+00
1.000526e+00
1.002671e+00
1.010834e+00
1.035968e+00
1.089278e+00
1.137148e+00
1.000002e+00
1.000012e+00
1.000080e+00
1.000455e+00
1.002342e+00
1.009632e+00
1.032613e+00
1.082803e+00
1.131847e+00
1.000002e+00
1.000013e+00
1.000090e+00
1.000514e+00
1.002635e+00
1.010768e+00
1.036037e+00
1.089851e+00
1.138212e+00
1.000091e+00
1.000519e+00
1.002659e+00
1.010862e+00
1.036313e+00
1.090363e+00
1.138504e+00
1.000090e+00
1.000514e+00
1.002635e+00
1.010768e+00
1.036037e+00
1.089851e+00
1.138212e+00
1.000080e+00
1.000455e+00
1.002342e+00
1.009632e+00
1.032613e+00
1.082803e+00
1.131847e+00
1.000000e+00
1.000000e+00
1.000000e+00
1.000000e+00
1.000000e+00
1.000000e+00
1.000000e+00
1.000000e+00
1.000000e+00
1.000000e+00
1.000000e+00
1.000000e+00
1.000000e+00
1.000000e+00
1.000000e+00
1.000000e+00
1.000000e+00
1.000000e+00
1.000000e+00
1.000000e+00
1.000000e+00
1.000000e+00
1.000000e+00
1.000000e+00
1.000000e+00
1.000000e+00
1.000000e+00
1.000000e+00
1.000000e+00
1.000000e+00
1.000000e+00
1.000000e+00
1.000000e+00
1.000000e+00
1.000000e+00
1.000000e+00
1.000000e+00
1.000000e+00
1.000000e+00
1.000000e+00
1.000000e+00
1.000000e+00
1.000000e+00
1.000000e+00
1.000000e+00
1.000000e+00
1.000000e+00
1.000000e+00
1.000000e+00
1.000000e+00
1.000000e+00
1.000000e+00
1.000000e+00
1.000000e+00
1.000000e+00
1.000000e+00
1.000000e+00
1.000000e+00
1.000000e+00
1.000000e+00
1.000000e+00
1.000000e+00
1.000000e+00
1.000000e+00
1.000000e+00
1.000000e+00
1.000000e+00
1.000000e+00
1.000000e+00
1.000000e+00
1.000000e+00
1.000000e+00
1.000000e+00
1.000000e+00
1.000000e+00
1.000000e+00
1.000000e+00
1.000000e+00
1.000000e+00
1.000000e+00
1.000000e+00
1.000000e+00
1.000000e+00
1.000000e+00
1.000000e+00
1.000000e+00
1.000000e+00
1.000000e+00
1.000000e+00
1.000000e+00
1.000000e+00
1.000000e+00
1.000000e+00
1.000000e+00
1.000000e+00
1.000000e+00
1.000000e+00
1.000000e+00
1.000000e+00
1.000000e+00
1.000000e+00
1.000000e+00
1.000000e+00
1.000000e+00
1.000000e+00
1.000000e+00
1.000000e+00
1.000000e+00
1.000000e+00
1.000000e+00
1.000000e+00
1.000000e+00
1.000000e+00
1.000000e+00
1.000000e+00
1.000000e+00
1.000000e+00
1.000000e+00
1.000000e+00
1.000000e+00
1.000000e+00
1.000000e+00
1.000000e+00
1.000000e+00
1.000000e+00
1.000000e+00
1.000000e+00
1.000000e+00
1.000000e+00
1.000000e+00
1.000000e+00
1.000000e+00
1.000000e+00
1.000000e+00
1.000000e+00
1.000000e+00
1.000000e+00
1.000000e+00
1.000000e+00
1.000000e+00
1.000000e+00
1.000000e+00
1.000000e+00
1.000000e+00
1.000000e+00
1.000000e+00
1.000000e+00
1.000000e+00
1.000000e+00
1.000000e+00
1.000000e+00
1.000000e+00
1.000000e+00
1.000000e+00
1.000000e+00
1.000000e+00
1.000000e+00
1.000000e+00
1.000000e+00
1.000000e+00
1.000000e+00
1.000000e+00
1.000000e+00
1.000000e+00
1.000000e+00
1.000000e+00
1.000000e+00
1.000000e+00
1.000000e+00
1.000000e+00
1.000000e+00
1.000000e+00
1.000000e+00
1.000000e+00
1.000000e+00
1.000000e+00
1.000000e+00
1.000000e+00
1.000000e+00
1.000000e+00
1.000000e+00
1.000000e+00
1.000000e+00
1.000000e+00
1.000000e+00
1.000000e+00
1.000000e+00
1.000000e+00
1.000000e+00
1.000000e+00
1.000000e+00
1.000000e+00
1.000000e+00
1.000000e+00
1.000000e+00
1.000000e+00
1.000000e+00
1.000000e+00
1.000000e+00
1.000000e+00
1.000000e+00
1.000000e+00
1.000000e+00
1.000000e+00
1.000000e+00
1.000000e+00
1.000000e+00
1.000000e+00
1.000000e+00
1.000000e+00
1.000000e+00
1.000000e+00
1.000000e+00
1.000000e+00
1.000000e+00
1.000000e+00
1.000000e+00
1.000000e+00
1.000000e+00
1.000000e+00
1.000000e+00
1.000000e+00
1.000000e+00
1.000000e+00
1.000000e+00
1.000000e+00
1.000000e+00
1.000000e+00
1.000000e+00
1.000000e+00
1.000000e+00
1.000000e+00
1.000000e+00
1.000000e+00
1.000000e+00
1.000000e+00
1.000000e+00
1.000000e+00
1.000000e+00
1.000000e+00
1.000000e+00
1.000000e+00
1.000000e+00
1.000000e+00
1.000000e+00
1.000000e+00
1.000000e+00
1.000000e+00
1.000000e+00
1.000000e+00
1.000000e+00
1.000000e+00
1.000000e+00
1.000000e+00
1.000000e+00
1.000000e+00
1.000000e+00
1.000000e+00
1.000000e+00
1.000000e+00
1.000000e+00
1.000000e+00
1.000000e+00
1.000000e+00
1.000000e+00
1.000000e+00
1.000000e+00
1.000000e+00
1.000000e+00
1.000000e+00
1.000000e+00
1.000000e+00
1.000000e+00
1.000000e+00
1.000000e+00
1.000000e+00
1.000000e+00
1.000000e+00
1.000000e+00
1.000000e+00
1.000000e+00
1.000000e+00
1.000000e+00
1.000000e+00
1.000000e+00
1.000000e+00
1.000000e+00
1.000000e+00
1.000000e+00
1.000000e+00
1.000000e+00
1.000000e+00
1.000000e+00
1.000000e+00
1.000000e+00
1.000000e+00
1.000000e+00
1.000000e+00
1.000000e+00
1.000000e+00
1.000000e+00
1.000000e+00
1.000000e+00
1.000000e+00
1.000000e+00
1.000000e+00
1.000000e+00
1.000000e+00
1.000000e+00
1.000000e+00
1.000000e+00
1.000000e+00
1.000000e+00
1.000000e+00
1.000000e+00
1.000000e+00
1.000000e+00
1.000000e+00
1.000000e+00
1.000000e+00
1.000000e+00
1.000000e+00
1.000000e+00
1.000000e+00
1.000000e+00
1.000000e+00
1.000000e+00
1.000000e+00
1.000000e+00
1.000000e+00
1.000000e+00
1.000000e+00
1.000000e+00
1.000000e+00
1.000000e+00
1.000000e+00
1.000000e+00
1.000000e+00
1.000000e+00
1.000000e+00
1.000000e+00
1.000000e+00
1.000000e+00
1.000000e+00
1.000000e+00
1.000000e+00
1.000000e+00
1.000000e+00
1.000000e+00
1.000000e+00
1.000000e+00
1.000000e+00
1.000000e+00
1.000000e+00
1.000000e+00
1.000000e+00
1.000000e+00
1.000000e+00
1.000000e+00
1.000000e+00
1.000000e+00
1.000000e+00
1.000000e+00
1.000000e+00
1.000000e+00
1.000000e+00
1.000000e+00
1.000000e+00
1.000000e+00
1.000000e+00
1.000000e+00
1.000000e+00
1.000000e+00
1.000000e+00
1.000000e+00
1.000000e+00
1.000000e+00
1.000000e+00
1.000000e+00
1.000000e+00
1.000000e+00
1.000000e+00
1.000000e+00
1.000000e+00
1.000000e+00
1.000000e+00
1.000000e+00
1.000000e+00
1.000000e+00
1.000000e+00
1.000000e+00
1.000000e+00
1.000000e+00
1.000000e+00
1.000000e+00
1.000000e+00
1.000000e+00
1.000000e+00
1.000000e+00
1.000000e+00
1.000000e+00
1.000000e+00
1.000000e+00
1.000000e+00
1.000000e+00
1.000000e+00
1.000000e+00
1.000000e+00
1.000000e+00
1.000000e+00
1.000000e+00
1.000000e+00
1.000000e+00
1.000000e+00
1.000000e+00
1.000000e+00
1.000000e+00
1.000000e+00
1.000000e+00
1.000000e+00
1.000000e+00
1.000000e+00
1.000000e+00
1.000000e+00
1.000000e+00
1.000000e+00
1.000000e+00
1.000000e+00
1.000000e+00
1.000000e+00
1.000000e+00
1.000000e+00
1.000000e+00
1.000000e+00
1.000000e+00
1.000000e+00
1.000000e+00
1.000000e+00
VECTORS Momentum double
1.177869e-12 1.344071e-13 8.848515e-15
1.467431e-11 1.300027e-12 3.585900e-13
1.711246e-10 1.414190e-11 4.413436e-12
1.848938e-09 1.418528e-10 5.090560e-11
1.873689e-08 1.329962e-09 5.433535e-10
1.732807e-07 1.131514e-08 5.430960e-09
1.494927e-06 8.945969e-08 4.941355e-08
1.150665e-05 6.276475e-07 4.183912e-07
1.365848e-12 1.358325e-13 2.987552e-15
1.687660e-11 1.494742e-12 1.813578e-13
1.965426e-10 1.624049e-11 2.234807e-12
2.121768e-09 1.627726e-10 2.577905e-11
2.148133e-08 1.524691e-09 2.751322e-10
1.984471e-07 1.295806e-08 2.749445e-09
1.709932e-06 1.023255e-07 2.500959e-08
1.314329e-05 7.169598e-07 2.116704e-07
1.706032e-11 1.510899e-12 -3.028303e-16
1.986612e-10 1.641633e-11 -1.754966e-17
2.144515e-09 1.645184e-10 -3.540518e-19
2.171007e-08 1.540929e-09 -2.166872e-20
2.005440e-07 1.309509e-08 1.127602e-21
1.727827e-06 1.033980e-07 4.329889e-20
1.327933e-05 7.244005e-07 5.243552e-22
9.453381e-05 4.678512e-06 -4.445712e-20
1.688057e-11 1.494748e-12 -1.827317e-13
1.965429e-10 1.624042e-11 -2.235235e-12
2.121768e-09 1.627726e-10 -2.577910e-11
2.148133e-08 1.524691e-09 -2.751322e-10
1.984471e-07 1.295806e-08 -2.749445e-09
1.709932e-06 1.023255e-07 -2.500959e-08
1.314329e-05 7.169598e-07 -2.116704e-07
9.357924e-05 4.631056e-06 -1.592184e-06
1.469353e-11 1.300548e-12 -3.605009e-13
1.711258e-10 1.414091e-11 -4.414225e-12
1.848938e-09 1.418529e-10 -5.090571e-11
1.873689e-08 1.329962e-09 -5.433535e-10
1.732807e-07 1.131514e-08 -5.430960e-09
1.494927e-06 8.945969e-08 -4.941355e-08
1.150665e-05 6.276475e-07 -4.183912e-07
8.206033e-05 4.060364e-06 -3.148689e-06
1.054171e-12 4.343074e-13 -3.183520e-14
1.363007e-11 1.176774e-12 3.314487e-13
1.610371e-10 1.248637e-11 4.148716e-12
1.759076e-09 1.252272e-10 4.841310e-11
1.802617e-08 1.174226e-09 5.224947e-10
1.684953e-07 9.930336e-09 5.281222e-09
1.469745e-06 7.801414e-08 4.856772e-08
1.142985e-05 5.372040e-07 4.158142e-07
1.264351e-12 1.584260e-13 -2.517254e-14
1.569792e-11 1.312440e-12 1.674802e-13
1.849600e-10 1.432728e-11 2.101500e-12
2.018718e-09 1.436902e-10 2.451850e-11
2.066744e-08 1.346074e-09 2.645850e-10
1.929777e-07 1.137118e-08 2.673856e-09
1.681252e-06 8.922276e-08 2.458394e-08
1.305682e-05 6.135295e-07 2.103923e-07
1.587566e-11 1.325131e-12 -8.981757e-16
1.869552e-10 1.448020e-11 -1.490664e-16
2.040369e-09 1.452317e-10 -7.129720e-18
2.088767e-08 1.360409e-09 -4.845536e-19
1.950186e-07 1.149138e-08 -4.646454e-20
1.698866e-06 9.015704e-08 -6.347648e-20
1.319215e-05 6.198870e-07 -6.602848e-20
9.493670e-05 3.930780e-06 -9.950370e-21
1.571258e-11 1.296568e-12 -1.713983e-13
1.849609e-10 1.432259e-11 -2.103192e-12
2.018719e-09 1.436898e-10 -2.451857e-11
2.066744e-08 1.346074e-09 -2.645850e-10
1.929777e-07 1.137118e-08 -2.673856e-09
1.681252e-06 8.922276e-08 -2.458394e-08
1.305682e-05 6.135295e-07 -2.103923e-07
9.397634e-05 3.891017e-06 -1.599132e-06
1.369458e-11 1.109423e-12 -3.371212e-13
1.610405e-10 1.246330e-11 -4.151686e-12
1.759077e-09 1.252254e-10 -4.841321e-11
1.802617e-08 1.174226e-09 -5.224948e-10
1.684953e-07 9.930336e-09 -5.281222e-09
1.469745e-06 7.801414e-08 -4.856772e-08
1.142985e-05 5.372040e-07 -4.158142e-07
8.239795e-05 3.412503e-06 -3.161934e-06
3.620685e-13 -3.248692e-13 -9.969342e-13
1.117826e-11 8.505104e-13 1.585367e-13
1.395928e-10 1.019509e-11 3.562397e-12
1.542050e-09 1.025982e-10 4.243049e-11
1.597581e-08 9.624158e-10 4.629039e-10
1.509448e-07 8.094040e-09 4.730129e-09
1.331134e-06 6.320926e-08 4.396815e-08
1.046257e-05 4.270250e-07 3.805572e-07
1.387737e-12 7.362938e-14 -6.177192e-13
1.339986e-11 1.064870e-12 7.417068e-14
1.603984e-10 1.172434e-11 1.800741e-12
1.769673e-09 1.177193e-10 2.149017e-11
1.831660e-08 1.103137e-09 2.344091e-10
1.728763e-07 9.266888e-09 2.394833e-09
1.522685e-06 7.227368e-08 2.225566e-08
1.195175e-05 4.875200e-07 1.925522e-07
1.363014e-11 1.086187e-12 -2.923627e-14
1.621336e-10 1.185259e-11 -7.996176e-15
1.788657e-09 1.189819e-10 -6.698988e-16
1.851177e-08 1.114872e-09 -1.131107e-16
1.747045e-07 9.364669e-09 -1.417590e-18
1.538637e-06 7.302852e-08 -1.103907e-18
1.207562e-05 4.925519e-07 -1.930763e-18
8.786014e-05 3.063771e-06 -1.374726e-18
1.365818e-11 1.105821e-12 -2.052656e-13
1.604260e-10 1.173173e-11 -1.841870e-12
1.769681e-09 1.177204e-10 -2.149356e-11
1.831660e-08 1.103138e-09 -2.344098e-10
1.728763e-07 9.266888e-09 -2.394833e-09
1.522685e-06 7.227368e-08 -2.225566e-08
1.195175e-05 4.875200e-07 -1.925522e-07
8.697137e-05 3.032972e-06 -1.479049e-06
1.227103e-11 1.019802e-12 -3.522361e-13
1.397099e-10 1.022653e-11 -3.625829e-12
1.542088e-09 1.026033e-10 -4.243571e-11
1.597582e-08 9.624163e-10 -4.629051e-10
1.509448e-07 8.094040e-09 -4.730129e-09
1.331134e-06 6.320926e-08 -4.396815e-08
1.046257e-05 4.270250e-07 -3.805572e-07
7.625701e-05 2.661445e-06 -2.924518e-06
1.298561e-12 -2.415445e-13 9.648315e-13
1.053701e-11 8.031441e-13 3.436163e-13
1.208091e-10 8.776432e-12 3.139151e-12
1.347755e-09 8.910319e-11 3.708287e-11
1.411248e-08 8.436089e-10 4.088197e-10
1.347544e-07 7.154594e-09 4.222152e-09
1.201144e-06 5.633901e-08 3.966064e-08
9.540061e-06 3.829400e-07 3.469469e-07
5.931160e-13 -1.074785e-15 6.003898e-13
1.159930e-11 9.195392e-13 1.781664e-13
1.387027e-10 1.008633e-11 1.593014e-12
1.546654e-09 1.022304e-10 1.878269e-11
1.618010e-08 9.669292e-10 2.070202e-10
1.543317e-07 8.190961e-09 2.137628e-09
1.373969e-06 6.441429e-08 2.007505e-08
1.089771e-05 4.371481e-07 1.755434e-07
1.164029e-11 9.240320e-13 2.606285e-14
1.401983e-10 1.019663e-11 8.004911e-15
1.563240e-09 1.033243e-10 6.503717e-16
1.635249e-08 9.772110e-10 1.899567e-16
1.559636e-07 8.277352e-09 2.857305e-18
1.388361e-06 6.508664e-08 8.734088e-19
1.101064e-05 4.416558e-07 -6.150625e-19
8.097737e-05 2.763608e-06 -1.066191e-18
1.135346e-11 9.143115e-13 -6.863207e-14
1.386784e-10 1.008911e-11 -1.558644e-12
1.546647e-09 1.022302e-10 -1.877927e-11
1.618010e-08 9.669292e-10 -2.070197e-10
1.543317e-07 8.190961e-09 -2.137628e-09
1.373969e-06 6.441429e-08 -2.007505e-08
1.089771e-05 4.371481e-07 -1.755434e-07
8.015840e-05 2.735868e-06 -1.362409e-06
9.503744e-12 7.828137e-13 -1.849013e-13
1.207130e-10 8.792400e-12 -3.088789e-12
1.347723e-09 8.910275e-11 -3.707755e-11
1.411248e-08 8.436091e-10 -4.088192e-10
1.347544e-07 7.154594e-09 -4.222152e-09
1.201144e-06 5.633901e-08 -3.966064e-08
9.540061e-06 3.829400e-07 -3.469469e-07
7.028532e-05 2.401083e-06 -2.693945e-06
6.882158e-13 3.796748e-13 5.999273e-14
8.561654e-12 6.746466e-13 2.161133e-13
1.039367e-10 7.169732e-12 2.677554e-12
1.172217e-09 7.264264e-11 3.224342e-11
1.240621e-08 6.870191e-10 3.592339e-10
1.197151e-07 5.782094e-09 3.749694e-09
1.078580e-06 4.508980e-08 3.559259e-08
7.444297e-13 1.076513e-13 3.456783e-14
9.815991e-12 7.404786e-13 1.100332e-13
1.193710e-10 8.222346e-12 1.355880e-12
1.345204e-09 8.333406e-11 1.632953e-11
1.422360e-08 7.873292e-10 1.819069e-10
1.371045e-07 6.618196e-09 1.898393e-09
1.233737e-06 5.153643e-08 1.801553e-08
9.919277e-12 7.470311e-13 1.726567e-15
1.206580e-10 8.309556e-12 3.642771e-16
1.359627e-09 8.422483e-11 3.584883e-17
1.437512e-08 7.956896e-10 2.507031e-17
1.385540e-07 6.687851e-09 6.508610e-20
1.246657e-06 5.207263e-08 1.306309e-22
9.990325e-06 3.440604e-07 2.142813e-21
7.426919e-05 2.086228e-06 -6.589570e-20
9.804312e-12 7.240377e-13 -1.010745e-13
1.193694e-10 8.217436e-12 -1.353841e-12
1.345203e-09 8.333366e-11 -1.632914e-11
1.422360e-08 7.873291e-10 -1.819068e-10
1.371045e-07 6.618196e-09 -1.898393e-09
1.233737e-06 5.153643e-08 -1.801553e-08
9.887894e-06 3.405670e-07 -1.592161e-07
7.351838e-05 2.065473e-06 -1.248448e-06
8.512164e-12 6.091970e-13 -2.022988e-13
1.039289e-10 7.149601e-12 -2.674348e-12
1.172215e-09 7.264054e-11 -3.224275e-11
1.240621e-08 6.870188e-10 -3.592338e-10
1.197151e-07 5.782094e-09 -3.749694e-09
1.078580e-06 4.508980e-08 -3.559259e-08
8.656358e-06 2.984858e-07 -3.146859e-07
6.446613e-05 1.814200e-06 -2.468697e-06
5.133390e-13 5.260478e-14 2.324275e-14
6.661801e-12 4.474802e-13 1.642776e-13
8.194393e-11 4.909254e-12 2.106344e-12
9.346184e-10 4.923940e-11 2.566837e-11
1.000662e-08 4.593936e-10 2.892067e-10
9.765183e-08 3.747325e-09 3.053514e-09
8.902428e-07 2.818656e-08 2.930725e-08
5.816023e-13 4.361702e-14 1.303206e-14
7.649681e-12 5.103337e-13 8.370287e-14