# vtk DataFile Version 2.0
Simplicial Mesh Example
ASCII
DATASET UNSTRUCTURED_GRID
POINTS 1302 double
0.000000e+00 1.000000e+00 5.000000e-01
-5.551115e-17 1.000000e+00 3.000000e-01
3.302130e-02 6.666667e-01 5.000000e-01
3.302130e-02 6.666667e-01 3.000000e-01
-2.000000e-01 1.000000e+00 5.000000e-01
-2.000000e-01 1.000000e+00 3.000000e-01
-1.691801e-01 6.666667e-01 5.000000e-01
-1.691801e-01 6.666667e-01 3.000000e-01
-4.000000e-01 1.000000e+00 5.000000e-01
-4.000000e-01 1.000000e+00 3.000000e-01
-3.713816e-01 6.666667e-01 5.000000e-01
-3.713816e-01 6.666667e-01 3.000000e-01
-6.000000e-01 1.000000e+00 5.000000e-01
-6.000000e-01 1.000000e+00 3.000000e-01
-5.735829e-01 6.666667e-01 5.000000e-01
-5.735829e-01 6.666667e-01 3.000000e-01
-8.000000e-01 1.000000e+00 5.000000e-01
-8.000000e-01 1.000000e+00 3.000000e-01
-7.757844e-01 6.666667e-01 5.000000e-01
-7.757844e-01 6.666667e-01 3.000000e-01
-1.000000e+00 1.000000e+00 5.000000e-01
-1.000000e+00 1.000000e+00 3.000000e-01
-9.779858e-01 6.666667e-01 5.000000e-01
-9.779858e-01 6.666667e-01 3.000000e-01
-1.200000e+00 1.000000e+00 5.000000e-01
-1.200000e+00 1.000000e+00 3.000000e-01
-1.180187e+00 6.666667e-01 5.000000e-01
-1.180187e+00 6.666667e-01 3.000000e-01
-2.000000e-01 1.000000e+00 1.000000e-01
-1.691801e-01 6.666667e-01 1.000000e-01
-4.000000e-01 1.000000e+00 1.000000e-01
-3.713816e-01 6.666667e-01 1.000000e-01
-6.000000e-01 1.000000e+00 1.000000e-01
-5.735829e-01 6.666667e-01 1.000000e-01
-8.000000e-01 1.000000e+00 1.000000e-01
-7.757844e-01 6.666667e-01 1.000000e-01
-1.000000e+00 1.000000e+00 1.000000e-01
-9.779858e-01 6.666667e-01 1.000000e-01
-1.200000e+00 1.000000e+00 1.000000e-01
-1.180187e+00 6.666667e-01 1.000000e-01
-2.000000e-01 1.000000e+00 -1.000000e-01
-1.691801e-01 6.666667e-01 -1.000000e-01
-4.000000e-01 1.000000e+00 -1.000000e-01
-3.713816e-01 6.666667e-01 -1.000000e-01
-6.000000e-01 1.000000e+00 -1.000000e-01
-5.735829e-01 6.666667e-01 -1.000000e-01
-8.000000e-01 1.000000e+00 -1.000000e-01
-7.757844e-01 6.666667e-01 -1.000000e-01
-1.000000e+00 1.000000e+00 -1.000000e-01
-9.779858e-01 6.666667e-01 -1.000000e-01
-1.200000e+00 1.000000e+00 -1.000000e-01
-1.180187e+00 6.666667e-01 -1.000000e-01
-1.400000e+00 1.000000e+00 -1.000000e-01
-1.382389e+00 6.666667e-01 -1.000000e-01
-2.000000e-01 1.000000e+00 -3.000000e-01
-1.691801e-01 6.666667e-01 -3.000000e-01
-4.000000e-01 1.000000e+00 -3.000000e-01
-3.713816e-01 6.666667e-01 -3.000000e-01
-6.000000e-01 1.000000e+00 -3.000000e-01
-5.735829e-01 6.666667e-01 -3.000000e-01
-8.000000e-01 1.000000e+00 -3.000000e-01
-7.757844e-01 6.666667e-01 -3.000000e-01
-1.000000e+00 1.000000e+00 -3.000000e-01
-9.779858e-01 6.666667e-01 -3.000000e-01
-1.200000e+00 1.000000e+00 -3.000000e-01
-1.180187e+00 6.666667e-01 -3.000000e-01
-1.400000e+00 1.000000e+00 -3.000000e-01
-1.382389e+00 6.666667e-01 -3.000000e-01
-2.000000e-01 1.000000e+00 -5.000000e-01
-1.691801e-01 6.666667e-01 -5.000000e-01
-4.000000e-01 1.000000e+00 -5.000000e-01
-3.713816e-01 6.666667e-01 -5.000000e-01
-6.000000e-01 1.000000e+00 -5.000000e-01
-5.735829e-01 6.666667e-01 -5.000000e-01
-8.000000e-01 1.000000e+00 -5.000000e-01
-7.757844e-01 6.666667e-01 -5.000000e-01
-1.000000e+00 1.000000e+00 -5.000000e-01
-9.779858e-01 6.666667e-01 -5.000000e-01
-1.200000e+00 1.000000e+00 -5.000000e-01
-1.180187e+00 6.666667e-01 -5.000000e-01
-1.400000e+00 1.000000e+00 -5.000000e-01
-1.382389e+00 6.666667e-01 -5.000000e-01
6.604260e-02 3.333333e-01 5.000000e-01
6.604260e-02 3.333333e-01 3.000000e-01
-1.383602e-01 3.333333e-01 5.000000e-01
-1.383602e-01 3.333333e-01 3.000000e-01
-3.427631e-01 3.333333e-01 5.000000e-01
-3.427631e-01 3.333333e-01 3.000000e-01
-5.471659e-01 3.333333e-01 5.000000e-01
-5.471659e-01 3.333333e-01 3.000000e-01
-7.515687e-01 3.333333e-01 5.000000e-01
-7.515687e-01 3.333333e-01 3.000000e-01
-9.559716e-01 3.333333e-01 5.000000e-01
-9.559716e-01 3.333333e-01 3.000000e-01
-1.160374e+00 3.333333e-01 5.000000e-01
-1.160374e+00 3.333333e-01 3.000000e-01
-1.383602e-01 3.333333e-01 1.000000e-01
-3.427631e-01 3.333333e-01 1.000000e-01
-5.471659e-01 3.333333e-01 1.000000e-01
-7.515687e-01 3.333333e-01 1.000000e-01
-9.559716e-01 3.333333e-01 1.000000e-01
-1.160374e+00 3.333333e-01 1.000000e-01
-1.383602e-01 3.333333e-01 -1.000000e-01
-3.427631e-01 3.333333e-01 -1.000000e-01
-5.471659e-01 3.333333e-01 -1.000000e-01
-7.515687e-01 3.333333e-01 -1.000000e-01
-9.559716e-01 3.333333e-01 -1.000000e-01
-1.160374e+00 3.333333e-01 -1.000000e-01
-1.364777e+00 3.333333e-01 -1.000000e-01
-1.383602e-01 3.333333e-01 -3.000000e-01
-3.427631e-01 3.333333e-01 -3.000000e-01
-5.471659e-01 3.333333e-01 -3.000000e-01
-7.515687e-01 3.333333e-01 -3.000000e-01
-9.559716e-01 3.333333e-01 -3.000000e-01
-1.160374e+00 3.333333e-01 -3.000000e-01
-1.364777e+00 3.333333e-01 -3.000000e-01
-1.383602e-01 3.333333e-01 -5.000000e-01
-3.427631e-01 3.333333e-01 -5.000000e-01
-5.471659e-01 3.333333e-01 -5.000000e-01
-7.515687e-01 3.333333e-01 -5.000000e-01
-9.559716e-01 3.333333e-01 -5.000000e-01
-1.160374e+00 3.333333e-01 -5.000000e-01
-1.364777e+00 3.333333e-01 -5.000000e-01
9.906390e-02 -2.775558e-17 5.000000e-01
9.906390e-02 -5.551115e-17 3.000000e-01
-1.075404e-01 0.000000e+00 5.000000e-01
-1.075404e-01 0.000000e+00 3.000000e-01
-3.141446e-01 0.000000e+00 5.000000e-01
-3.141446e-01 0.000000e+00 3.000000e-01
-5.207489e-01 0.000000e+00 5.000000e-01
-5.207489e-01 0.000000e+00 3.000000e-01
-7.273532e-01 -5.551115e-17 5.000000e-01
-7.273532e-01 0.000000e+00 3.000000e-01
-9.339574e-01 0.000000e+00 5.000000e-01
-9.339574e-01 0.000000e+00 3.000000e-01
-1.140562e+00 0.000000e+00 5.000000e-01
-1.140562e+00 0.000000e+00 3.000000e-01
-1.075404e-01 -2.775558e-17 1.000000e-01
-3.141446e-01 0.000000e+00 1.000000e-01
-5.207489e-01 -2.775558e-17 1.000000e-01
-7.273532e-01 0.000000e+00 1.000000e-01
-9.339574e-01 0.000000e+00 1.000000e-01
-1.140562e+00 -2.775558e-17 1.000000e-01
-1.075404e-01 0.000000e+00 -1.000000e-01
-3.141446e-01 0.000000e+00 -1.000000e-01
-5.207489e-01 -2.775558e-17 -1.000000e-01
-7.273532e-01 0.000000e+00 -1.000000e-01
-9.339574e-01 0.000000e+00 -1.000000e-01
-1.140562e+00 -2.775558e-17 -1.000000e-01
-1.347166e+00 0.000000e+00 -1.000000e-01
-1.075404e-01 -2.775558e-17 -3.000000e-01
-3.141446e-01 0.000000e+00 -3.000000e-01
-5.207489e-01 0.000000e+00 -3.000000e-01
-7.273532e-01 -2.775558e-17 -3.000000e-01
-9.339574e-01 -2.775558e-17 -3.000000e-01
-1.140562e+00 -2.775558e-17 -3.000000e-01
-1.347166e+00 -5.551115e-17 -3.000000e-01
-1.075404e-01 0.000000e+00 -5.000000e-01
-3.141446e-01 0.000000e+00 -5.000000e-01
-5.207489e-01 0.000000e+00 -5.000000e-01
-7.273532e-01 0.000000e+00 -5.000000e-01
-9.339574e-01 0.000000e+00 -5.000000e-01
-1.140562e+00 0.000000e+00 -5.000000e-01
-1.347166e+00 -5.551115e-17 -5.000000e-01
1.320852e-01 -3.333333e-01 5.000000e-01
1.320852e-01 -3.333333e-01 3.000000e-01
-7.672048e-02 -3.333333e-01 5.000000e-01
-7.672048e-02 -3.333333e-01 3.000000e-01
-2.855262e-01 -3.333333e-01 5.000000e-01
-2.855262e-01 -3.333333e-01 3.000000e-01
-4.943318e-01 -3.333333e-01 5.000000e-01
-4.943318e-01 -3.333333e-01 3.000000e-01
-7.031375e-01 -3.333333e-01 5.000000e-01
-7.031375e-01 -3.333333e-01 3.000000e-01
-9.119432e-01 -3.333333e-01 5.000000e-01
-9.119432e-01 -3.333333e-01 3.000000e-01
-7.672048e-02 -3.333333e-01 1.000000e-01
-2.855262e-01 -3.333333e-01 1.000000e-01
-4.943318e-01 -3.333333e-01 1.000000e-01
-7.031375e-01 -3.333333e-01 1.000000e-01
-9.119432e-01 -3.333333e-01 1.000000e-01
-7.672048e-02 -3.333333e-01 -1.000000e-01
-2.855262e-01 -3.333333e-01 -1.000000e-01
-4.943318e-01 -3.333333e-01 -1.000000e-01
-7.031375e-01 -3.333333e-01 -1.000000e-01
-9.119432e-01 -3.333333e-01 -1.000000e-01
-1.120749e+00 -3.333333e-01 -1.000000e-01
-1.329555e+00 -3.333333e-01 -1.000000e-01
-7.672048e-02 -3.333333e-01 -3.000000e-01
-2.855262e-01 -3.333333e-01 -3.000000e-01
-4.943318e-01 -3.333333e-01 -3.000000e-01
-7.031375e-01 -3.333333e-01 -3.000000e-01
-9.119432e-01 -3.333333e-01 -3.000000e-01
-1.120749e+00 -3.333333e-01 -3.000000e-01
-1.329555e+00 -3.333333e-01 -3.000000e-01
-7.672048e-02 -3.333333e-01 -5.000000e-01
-2.855262e-01 -3.333333e-01 -5.000000e-01
-4.943318e-01 -3.333333e-01 -5.000000e-01
-7.031375e-01 -3.333333e-01 -5.000000e-01
-9.119432e-01 -3.333333e-01 -5.000000e-01
-1.120749e+00 -3.333333e-01 -5.000000e-01
-1.329555e+00 -3.333333e-01 -5.000000e-01
1.651065e-01 -6.666667e-01 5.000000e-01
1.651065e-01 -6.666667e-01 3.000000e-01
-4.590059e-02 -6.666667e-01 5.000000e-01
-4.590059e-02 -6.666667e-01 3.000000e-01
-2.569077e-01 -6.666667e-01 5.000000e-01
-2.569077e-01 -6.666667e-01 3.000000e-01
-4.679148e-01 -6.666667e-01 5.000000e-01
-4.679148e-01 -6.666667e-01 3.000000e-01
-6.789219e-01 -6.666667e-01 5.000000e-01
-6.789219e-01 -6.666667e-01 3.000000e-01
-8.899290e-01 -6.666667e-01 5.000000e-01
-8.899290e-01 -6.666667e-01 3.000000e-01
-4.590059e-02 -6.666667e-01 1.000000e-01
-2.569077e-01 -6.666667e-01 1.000000e-01
-4.679148e-01 -6.666667e-01 1.000000e-01
-6.789219e-01 -6.666667e-01 1.000000e-01
-8.899290e-01 -6.666667e-01 1.000000e-01
-4.590059e-02 -6.666667e-01 -1.000000e-01
-2.569077e-01 -6.666667e-01 -1.000000e-01
-4.679148e-01 -6.666667e-01 -1.000000e-01
-6.789219e-01 -6.666667e-01 -1.000000e-01
-8.899290e-01 -6.666667e-01 -1.000000e-01
-1.100936e+00 -6.666667e-01 -1.000000e-01
-1.311943e+00 -6.666667e-01 -1.000000e-01
-4.590059e-02 -6.666667e-01 -3.000000e-01
-2.569077e-01 -6.666667e-01 -3.000000e-01
-4.679148e-01 -6.666667e-01 -3.000000e-01
-6.789219e-01 -6.666667e-01 -3.000000e-01
-8.899290e-01 -6.666667e-01 -3.000000e-01
-1.100936e+00 -6.666667e-01 -3.000000e-01
-1.311943e+00 -6.666667e-01 -3.000000e-01
-4.590059e-02 -6.666667e-01 -5.000000e-01
-2.569077e-01 -6.666667e-01 -5.000000e-01
-4.679148e-01 -6.666667e-01 -5.000000e-01
-6.789219e-01 -6.666667e-01 -5.000000e-01
-8.899290e-01 -6.666667e-01 -5.000000e-01
-1.100936e+00 -6.666667e-01 -5.000000e-01
-1.311943e+00 -6.666667e-01 -5.000000e-01
1.981278e-01 -1.000000e+00 5.000000e-01
1.981278e-01 -1.000000e+00 3.000000e-01
[...]
CELL_DATA 900
SCALARS Density double 1
LOOKUP_TABLE default
1.000000e+00
1.000000e+00
1.000000e+00
1.000000e+00
1.000000e+00
1.000000e+00
1.000000e+00
1.000003e+00
1.000000e+00
1.000000e+00
1.000000e+00
1.000000e+00
1.000000e+00
1.000000e+00
1.000000e+00
1.000003e+00
1.000000e+00
1.000000e+00
1.000000e+00
1.000000e+00
1.000000e+00
1.000000e+00
1.000003e+00
1.000021e+00
1.000000e+00
1.000000e+00
1.000000e+00
1.000000e+00
1.000000e+00
1.000000e+00
1.000003e+00
1.000021e+00
1.000000e+00
1.000000e+00
1.000000e+00
1.000000e+00
1.000000e+00
1.000000e+00
1.000003e+00
1.000018e+00
1.000000e+00
1.000000e+00
1.000000e+00
1.000000e+00
1.000000e+00
1.000000e+00
1.000000e+00
1.000003e+00
1.000000e+00
1.000000e+00
1.000000e+00
1.000000e+00
1.000000e+00
1.000000e+00
1.000000e+00
1.000003e+00
1.000000e+00
1.000000e+00
1.000000e+00
1.000000e+00
1.000000e+00
1.000000e+00
1.000003e+00
1.000021e+00
1.000000e+00
1.000000e+00
1.000000e+00
1.000000e+00
1.000000e+00
1.000000e+00
1.000003e+00
1.000021e+00
1.000000e+00
1.000000e+00
1.000000e+00
1.000000e+00
1.000000e+00
1.000000e+00
1.000003e+00
1.000018e+00
1.000000e+00
1.000000e+00
1.000000e+00
1.000000e+00
1.000000e+00
1.000000e+00
1.000000e+00
1.000002e+00
1.000000e+00
1.000000e+00
1.000000e+00
1.000000e+00
1.000000e+00
1.000000e+00
1.000000e+00
1.000003e+00
1.000000e+00
1.000000e+00
1.000000e+00
1.000000e+00
1.000000e+00
1.000000e+00
1.000003e+00
1.000019e+00
1.000000e+00
1.000000e+00
1.000000e+00
1.000000e+00
1.000000e+00
1.000000e+00
1.000003e+00
1.000019e+00
1.000000e+00
1.000000e+00
1.000000e+00
1.000000e+00
1.000000e+00
1.000000e+00
1.000002e+00
1.000017e+00
1.000000e+00
1.000000e+00
1.000000e+00
1.000000e+00
1.000000e+00
1.000000e+00
1.000000e+00
1.000002e+00
1.000000e+00
1.000000e+00
1.000000e+00
1.000000e+00
1.000000e+00
1.000000e+00
1.000000e+00
1.000002e+00
1.000000e+00
1.000000e+00
1.000000e+00
1.000000e+00
1.000000e+00
1.000000e+00
1.000002e+00
1.000018e+00
1.000000e+00
1.000000e+00
1.000000e+00
1.000000e+00
1.000000e+00
1.000000e+00
1.000002e+00
1.000018e+00
1.000000e+00
1.000000e+00
1.000000e+00
1.000000e+00
1.000000e+00
1.000000e+00
1.000002e+00
1.000015e+00
1.000000e+00
1.000000e+00
1.000000e+00
1.000000e+00
1.000000e+00
1.000000e+00
1.000000e+00
1.000000e+00
1.000000e+00
1.000000e+00
1.000000e+00
1.000000e+00
1.000000e+00
1.000000e+00
1.000000e+00
1.000000e+00
1.000000e+00
1.000000e+00
1.000000e+00
1.000000e+00
1.000002e+00
1.000016e+00
1.000000e+00
1.000000e+00
1.000000e+00
1.000000e+00
1.000000e+00
1.000000e+00
1.000002e+00
1.000016e+00
1.000000e+00
1.000000e+00
1.000000e+00
1.000000e+00
1.000000e+00
1.000000e+00
1.000002e+00
1.000014e+00
1.000000e+00
1.000000e+00
1.000000e+00
1.000000e+00
1.000000e+00
1.000000e+00
1.000000e+00
1.000000e+00
1.000000e+00
1.000000e+00
1.000000e+00
1.000000e+00
1.000000e+00
1.000000e+00
1.000000e+00
1.000000e+00
1.000000e+00
1.000000e+00
1.000000e+00
1.000000e+00
1.000002e+00
1.000014e+00
1.000000e+00
1.000000e+00
1.000000e+00
1.000000e+00
1.000000e+00
1.000000e+00
1.000002e+00
1.000014e+00
1.000000e+00
1.000000e+00
1.000000e+00
1.000000e+00
1.000000e+00
1.000000e+00
1.000002e+00
1.000012e+00
1.000018e+00
1.000115e+00
1.000623e+00
1.003022e+00
1.011779e+00
1.037386e+00
1.089826e+00
1.134700e+00
1.000021e+00
1.000131e+00
1.000704e+00
1.003400e+00
1.013168e+00
1.041294e+00
1.097381e+00
1.141062e+00
1.000132e+00
1.000711e+00
1.003432e+00
1.013284e+00
1.041605e+00
1.097916e+00
1.141328e+00
1.000131e+00
1.000704e+00
1.003400e+00
1.013168e+00
1.041294e+00
1.097381e+00
1.141062e+00
1.000115e+00
1.000623e+00
1.003022e+00
1.011779e+00
1.037386e+00
1.089826e+00
1.134700e+00
1.000018e+00
1.000116e+00
1.000636e+00
1.003116e+00
1.012239e+00
1.039084e+00
1.093826e+00
1.138937e+00
1.000021e+00
1.000132e+00
1.000719e+00
1.003508e+00
1.013689e+00
1.043191e+00
1.101769e+00
1.145600e+00
1.000133e+00
1.000726e+00
1.003541e+00
1.013809e+00
1.043519e+00
1.102332e+00
1.145874e+00
1.000132e+00
1.000719e+00
1.003508e+00
1.013689e+00
1.043191e+00
1.101769e+00
1.145600e+00
1.000116e+00
1.000636e+00
1.003116e+00
1.012239e+00
1.039084e+00
1.093826e+00
1.138937e+00
1.000017e+00
1.000109e+00
1.000601e+00
1.002980e+00
1.011826e+00
1.038237e+00
1.092730e+00
1.138691e+00
1.000019e+00
1.000124e+00
1.000679e+00
1.003354e+00
1.013227e+00
1.042262e+00
1.100604e+00
1.145376e+00
1.000125e+00
1.000686e+00
1.003386e+00
1.013344e+00
1.042584e+00
1.101165e+00
1.145656e+00
1.000124e+00
1.000679e+00
1.003354e+00
1.013227e+00
1.042262e+00
1.100604e+00
1.145376e+00
1.000109e+00
1.000601e+00
1.002980e+00
1.011826e+00
1.038237e+00
1.092730e+00
1.138691e+00
1.000015e+00
1.000102e+00
1.000566e+00
1.002836e+00
1.011371e+00
1.037228e+00
1.091258e+00
1.138115e+00
1.000018e+00
1.000115e+00
1.000639e+00
1.003192e+00
1.012719e+00
1.041150e+00
1.099026e+00
1.144801e+00
1.000116e+00
1.000646e+00
1.003222e+00
1.012831e+00
1.041465e+00
1.099582e+00
1.145088e+00
1.000115e+00
1.000639e+00
1.003192e+00
1.012719e+00
1.041150e+00
1.099026e+00
1.144801e+00
1.000102e+00
1.000566e+00
1.002836e+00
1.011371e+00
1.037228e+00
1.091258e+00
1.138115e+00
1.000002e+00
1.000014e+00
1.000094e+00
1.000529e+00
1.002683e+00
1.010873e+00
1.036055e+00
1.089406e+00
1.137196e+00
1.000002e+00
1.000016e+00
1.000107e+00
1.000598e+00
1.003020e+00
1.012161e+00
1.039855e+00
1.097029e+00
1.143859e+00
1.000108e+00
1.000604e+00
1.003049e+00
1.012268e+00
1.040160e+00
1.097578e+00
1.144150e+00
1.000107e+00
1.000598e+00
1.003020e+00
1.012161e+00
1.039855e+00
1.097029e+00
1.143859e+00
1.000094e+00
1.000529e+00
1.002683e+00
1.010873e+00
1.036055e+00
1.089406e+00
1.137196e+00
1.000002e+00
1.000012e+00
1.000080e+00
1.000458e+00
1.002353e+00
1.009666e+00
1.032691e+00
1.082920e+00
1.131892e+00
1.000002e+00
1.000014e+00
1.000091e+00
1.000517e+00
1.002647e+00
1.010806e+00
1.036125e+00
1.089980e+00
1.138258e+00
1.000092e+00
1.000522e+00
1.002672e+00
1.010901e+00
1.036401e+00
1.090492e+00
1.138551e+00
1.000091e+00
1.000517e+00
1.002647e+00
1.010806e+00
1.036125e+00
1.089980e+00
1.138258e+00
1.000080e+00
1.000458e+00
1.002353e+00
1.009666e+00
1.032691e+00
1.082920e+00
1.131892e+00
1.000000e+00
1.000000e+00
1.000000e+00
1.000000e+00
1.000000e+00
1.000000e+00
1.000000e+00
1.000000e+00
1.000000e+00
1.000000e+00
1.000000e+00
1.000000e+00
1.000000e+00
1.000000e+00
1.000000e+00
1.000000e+00
1.000000e+00
1.000000e+00
1.000000e+00
1.000000e+00
1.000000e+00
1.000000e+00
1.000000e+00
1.000000e+00
1.000000e+00
1.000000e+00
1.000000e+00
1.000000e+00
1.000000e+00
1.000000e+00
1.000000e+00
1.000000e+00
1.000000e+00
1.000000e+00
1.000000e+00
1.000000e+00
1.000000e+00
1.000000e+00
1.000000e+00
1.000000e+00
1.000000e+00
1.000000e+00
1.000000e+00
1.000000e+00
1.000000e+00
1.000000e+00
1.000000e+00
1.000000e+00
1.000000e+00
1.000000e+00
1.000000e+00
1.000000e+00
1.000000e+00
1.000000e+00
1.000000e+00
1.000000e+00
1.000000e+00
1.000000e+00
1.000000e+00
1.000000e+00
1.000000e+00
1.000000e+00
1.000000e+00
1.000000e+00
1.000000e+00
1.000000e+00
1.000000e+00
1.000000e+00
1.000000e+00
1.000000e+00
1.000000e+00
1.000000e+00
1.000000e+00
1.000000e+00
1.000000e+00
1.000000e+00
1.000000e+00
1.000000e+00
1.000000e+00
1.000000e+00
1.000000e+00
1.000000e+00
1.000000e+00
1.000000e+00
1.000000e+00
1.000000e+00
1.000000e+00
1.000000e+00
1.000000e+00
1.000000e+00
1.000000e+00
1.000000e+00
1.000000e+00
1.000000e+00
1.000000e+00
1.000000e+00
1.000000e+00
1.000000e+00
1.000000e+00
1.000000e+00
1.000000e+00
1.000000e+00
1.000000e+00
1.000000e+00
1.000000e+00
1.000000e+00
1.000000e+00
1.000000e+00
1.000000e+00
1.000000e+00
1.000000e+00
1.000000e+00
1.000000e+00
1.000000e+00
1.000000e+00
1.000000e+00
1.000000e+00
1.000000e+00
1.000000e+00
1.000000e+00
1.000000e+00
1.000000e+00
1.000000e+00
1.000000e+00
1.000000e+00
1.000000e+00
1.000000e+00
1.000000e+00
1.000000e+00
1.000000e+00
1.000000e+00
1.000000e+00
1.000000e+00
1.000000e+00
1.000000e+00
1.000000e+00
1.000000e+00
1.000000e+00
1.000000e+00
1.000000e+00
1.000000e+00
1.000000e+00
1.000000e+00
1.000000e+00
1.000000e+00
1.000000e+00
1.000000e+00
1.000000e+00
1.000000e+00
1.000000e+00
1.000000e+00
1.000000e+00
1.000000e+00
1.000000e+00
1.000000e+00
1.000000e+00
1.000000e+00
1.000000e+00
1.000000e+00
1.000000e+00
1.000000e+00
1.000000e+00
1.000000e+00
1.000000e+00
1.000000e+00
1.000000e+00
1.000000e+00
1.000000e+00
1.000000e+00
1.000000e+00
1.000000e+00
1.000000e+00
1.000000e+00
1.000000e+00
1.000000e+00
1.000000e+00
1.000000e+00
1.000000e+00
1.000000e+00
1.000000e+00
1.000000e+00
1.000000e+00
1.000000e+00
1.000000e+00
1.000000e+00
1.000000e+00
1.000000e+00
1.000000e+00
1.000000e+00
1.000000e+00
1.000000e+00
1.000000e+00
1.000000e+00
1.000000e+00
1.000000e+00
1.000000e+00
1.000000e+00
1.000000e+00
1.000000e+00
1.000000e+00
1.000000e+00
1.000000e+00
1.000000e+00
1.000000e+00
1.000000e+00
1.000000e+00
1.000000e+00
1.000000e+00
1.000000e+00
1.000000e+00
1.000000e+00
1.000000e+00
1.000000e+00
1.000000e+00
1.000000e+00
1.000000e+00
1.000000e+00
1.000000e+00
1.000000e+00
1.000000e+00
1.000000e+00
1.000000e+00
1.000000e+00
1.000000e+00
1.000000e+00
1.000000e+00
1.000000e+00
1.000000e+00
1.000000e+00
1.000000e+00
1.000000e+00
1.000000e+00
1.000000e+00
1.000000e+00
1.000000e+00
1.000000e+00
1.000000e+00
1.000000e+00
1.000000e+00
1.000000e+00
1.000000e+00
1.000000e+00
1.000000e+00
1.000000e+00
1.000000e+00
1.000000e+00
1.000000e+00
1.000000e+00
1.000000e+00
1.000000e+00
1.000000e+00
1.000000e+00
1.000000e+00
1.000000e+00
1.000000e+00
1.000000e+00
1.000000e+00
1.000000e+00
1.000000e+00
1.000000e+00
1.000000e+00
1.000000e+00
1.000000e+00
1.000000e+00
1.000000e+00
1.000000e+00
1.000000e+00
1.000000e+00
1.000000e+00
1.000000e+00
1.000000e+00
1.000000e+00
1.000000e+00
1.000000e+00
1.000000e+00
1.000000e+00
1.000000e+00
1.000000e+00
1.000000e+00
1.000000e+00
1.000000e+00
1.000000e+00
1.000000e+00
1.000000e+00
1.000000e+00
1.000000e+00
1.000000e+00
1.000000e+00
1.000000e+00
1.000000e+00
1.000000e+00
1.000000e+00
1.000000e+00
1.000000e+00
1.000000e+00
1.000000e+00
1.000000e+00
1.000000e+00
1.000000e+00
1.000000e+00
1.000000e+00
1.000000e+00
1.000000e+00
1.000000e+00
1.000000e+00
1.000000e+00
1.000000e+00
1.000000e+00
1.000000e+00
1.000000e+00
1.000000e+00
1.000000e+00
1.000000e+00
1.000000e+00
1.000000e+00
1.000000e+00
1.000000e+00
1.000000e+00
1.000000e+00
1.000000e+00
1.000000e+00
1.000000e+00
1.000000e+00
1.000000e+00
1.000000e+00
1.000000e+00
1.000000e+00
1.000000e+00
1.000000e+00
1.000000e+00
1.000000e+00
1.000000e+00
1.000000e+00
1.000000e+00
1.000000e+00
1.000000e+00
1.000000e+00
1.000000e+00
1.000000e+00
1.000000e+00
1.000000e+00
1.000000e+00
1.000000e+00
1.000000e+00
1.000000e+00
1.000000e+00
1.000000e+00
1.000000e+00
1.000000e+00
1.000000e+00
1.000000e+00
1.000000e+00
1.000000e+00
1.000000e+00
1.000000e+00
1.000000e+00
1.000000e+00
1.000000e+00
1.000000e+00
1.000000e+00
1.000000e+00
1.000000e+00
1.000000e+00
1.000000e+00
1.000000e+00
1.000000e+00
1.000000e+00
1.000000e+00
1.000000e+00
1.000000e+00
1.000000e+00
1.000000e+00
1.000000e+00
1.000000e+00
1.000000e+00
1.000000e+00
1.000000e+00
1.000000e+00
1.000000e+00
1.000000e+00
1.000000e+00
1.000000e+00
1.000000e+00
1.000000e+00
1.000000e+00
1.000000e+00
1.000000e+00
1.000000e+00
1.000000e+00
1.000000e+00
1.000000e+00
1.000000e+00
1.000000e+00
1.000000e+00
1.000000e+00
1.000000e+00
1.000000e+00
1.000000e+00
1.000000e+00
1.000000e+00
1.000000e+00
1.000000e+00
1.000000e+00
1.000000e+00
1.000000e+00
1.000000e+00
1.000000e+00
1.000000e+00
1.000000e+00
1.000000e+00
1.000000e+00
1.000000e+00
1.000000e+00
1.000000e+00
1.000000e+00
1.000000e+00
1.000000e+00
1.000000e+00
1.000000e+00
1.000000e+00
1.000000e+00
1.000000e+00
1.000000e+00
1.000000e+00
1.000000e+00
1.000000e+00
1.000000e+00
1.000000e+00
1.000000e+00
1.000000e+00
1.000000e+00
1.000000e+00
1.000000e+00
1.000000e+00
1.000000e+00
1.000000e+00
1.000000e+00
1.000000e+00
VECTORS Momentum double
1.196387e-12 1.362693e-13 9.195203e-15
1.488853e-11 1.319014e-12 3.644703e-13
1.734460e-10 1.433405e-11 4.481158e-12
1.872134e-09 1.436384e-10 5.163402e-11
1.895278e-08 1.345372e-09 5.505711e-10
1.751021e-07 1.143521e-08 5.497504e-09
1.509113e-06 9.032098e-08 4.996876e-08
1.160438e-05 6.331036e-07 4.226620e-07
1.387375e-12 1.379192e-13 3.149343e-15
1.712471e-11 1.516731e-12 1.843664e-13
1.992296e-10 1.646288e-11 2.269458e-12
2.148609e-09 1.648385e-10 2.615200e-11
2.173105e-08 1.542514e-09 2.788305e-10
2.005532e-07 1.309687e-08 2.783573e-09
1.726329e-06 1.033209e-07 2.529463e-08
1.325620e-05 7.232629e-07 2.138655e-07
1.731143e-11 1.533150e-12 -3.050474e-16
2.013806e-10 1.664140e-11 -1.811821e-17
2.171680e-09 1.666093e-10 -3.761942e-19
2.196281e-08 1.558969e-09 -2.166426e-20
2.026756e-07 1.323559e-08 1.135426e-21
1.744424e-06 1.044055e-07 4.329061e-20
1.339362e-05 7.307808e-07 5.080205e-22
9.525060e-05 4.715245e-06 -4.545421e-20
1.712872e-11 1.516737e-12 -1.857552e-13
1.992299e-10 1.646281e-11 -2.269890e-12
2.148609e-09 1.648385e-10 -2.615205e-11
2.173105e-08 1.542514e-09 -2.788305e-10
2.005532e-07 1.309687e-08 -2.783573e-09
1.726329e-06 1.033209e-07 -2.529463e-08
1.325620e-05 7.232629e-07 -2.138655e-07
9.428732e-05 4.667343e-06 -1.607106e-06
1.490791e-11 1.319546e-12 -3.664057e-13
1.734472e-10 1.433305e-11 -4.481954e-12
1.872134e-09 1.436385e-10 -5.163413e-11
1.895278e-08 1.345372e-09 -5.505711e-10
1.751021e-07 1.143521e-08 -5.497504e-09
1.509113e-06 9.032098e-08 -4.996876e-08
1.160438e-05 6.331036e-07 -4.226620e-07
8.267333e-05 4.091785e-06 -3.177678e-06
1.071262e-12 4.370176e-13 -3.168002e-14
1.383046e-11 1.193617e-12 3.369370e-13
1.632353e-10 1.265575e-11 4.212747e-12
1.781294e-09 1.267995e-10 4.911002e-11
1.823540e-08 1.187773e-09 5.294795e-10
1.702807e-07 1.003496e-08 5.346379e-09
1.483816e-06 7.875720e-08 4.911753e-08
1.152789e-05 5.417981e-07 4.200938e-07
1.284304e-12 1.604525e-13 -2.516038e-14
1.593009e-11 1.331753e-12 1.702843e-13
1.875045e-10 1.452325e-11 2.134260e-12
2.044428e-09 1.455093e-10 2.487532e-11
2.090946e-08 1.361742e-09 2.681640e-10
1.950422e-07 1.149214e-08 2.707272e-09
1.697516e-06 9.008146e-08 2.486621e-08
1.317009e-05 6.188365e-07 2.125920e-07
1.611068e-11 1.344661e-12 -9.055923e-16
1.895303e-10 1.467851e-11 -1.517103e-16
2.066389e-09 1.470728e-10 -7.217311e-18
2.113262e-08 1.376266e-09 -5.066772e-19
1.971081e-07 1.161380e-08 -4.646621e-20
1.715329e-06 9.102621e-08 -6.344454e-20
1.330681e-05 6.252590e-07 -6.607411e-20
9.566458e-05 3.960911e-06 -1.034425e-20
1.594486e-11 1.315777e-12 -1.742300e-13
1.875054e-10 1.451851e-11 -2.135966e-12
2.044428e-09 1.455089e-10 -2.487539e-11
2.090946e-08 1.361742e-09 -2.681640e-10
1.950422e-07 1.149214e-08 -2.707272e-09
1.697516e-06 9.008146e-08 -2.486621e-08
1.317009e-05 6.188365e-07 -2.125920e-07
9.469537e-05 3.920781e-06 -1.614254e-06
1.389533e-11 1.125939e-12 -3.426473e-13
1.632388e-10 1.263254e-11 -4.215739e-12
1.781296e-09 1.267977e-10 -4.911014e-11
1.823540e-08 1.187773e-09 -5.294795e-10
1.702807e-07 1.003496e-08 -5.346379e-09
1.483816e-06 7.875720e-08 -4.911753e-08
1.152789e-05 5.417981e-07 -4.200938e-07
8.302042e-05 3.438279e-06 -3.191313e-06
3.759387e-13 -3.249796e-13 -9.999508e-13
1.134860e-11 8.636935e-13 1.626518e-13
1.415008e-10 1.033251e-11 3.617774e-12
1.561550e-09 1.038736e-10 4.304188e-11
1.616148e-08 9.733776e-10 4.690985e-10
1.525464e-07 8.177864e-09 4.788553e-09
1.343898e-06 6.379763e-08 4.446652e-08
1.055247e-05 4.305597e-07 3.844794e-07
1.405872e-12 7.491041e-14 -6.198474e-13
1.359887e-11 1.080489e-12 7.623136e-14
1.626072e-10 1.188348e-11 1.829044e-12
1.792236e-09 1.191950e-10 2.180319e-11
1.853135e-08 1.115815e-09 2.375832e-10
1.747282e-07 9.363790e-09 2.424796e-09
1.537438e-06 7.295357e-08 2.251151e-08
1.205562e-05 4.916026e-07 1.945682e-07
1.383202e-11 1.102056e-12 -2.943077e-14
1.643690e-10 1.201366e-11 -8.064609e-15
1.811492e-09 1.204754e-10 -6.783958e-16
1.872913e-08 1.127703e-09 -1.146280e-16
1.765790e-07 9.462749e-09 -1.417535e-18
1.553570e-06 7.371670e-08 -1.104057e-18
1.218077e-05 4.966845e-07 -1.930614e-18
8.853511e-05 3.086199e-06 -1.418506e-18
1.385844e-11 1.121665e-12 -2.079903e-13
1.626350e-10 1.189092e-11 -1.870423e-12
1.792244e-09 1.191960e-10 -2.180661e-11
1.853135e-08 1.115815e-09 -2.375839e-10
1.747282e-07 9.363790e-09 -2.424796e-09
1.537438e-06 7.295357e-08 -2.251151e-08
1.205562e-05 4.916026e-07 -1.945682e-07
8.763814e-05 3.055127e-06 -1.493058e-06
1.244517e-11 1.033680e-12 -3.572370e-13
1.416185e-10 1.036413e-11 -3.681549e-12
1.561587e-09 1.038788e-10 -4.304714e-11
1.616148e-08 9.733782e-10 -4.690996e-10
1.525464e-07 8.177864e-09 -4.788553e-09
1.343898e-06 6.379763e-08 -4.446652e-08
1.055247e-05 4.305597e-07 -3.844794e-07
7.683426e-05 2.680634e-06 -2.951733e-06
1.311514e-12 -2.417561e-13 9.683143e-13
1.068618e-11 8.146283e-13 3.481896e-13
1.224602e-10 8.894544e-12 3.187386e-12
1.364804e-09 9.020908e-11 3.761735e-11
1.427656e-08 8.531967e-10 4.142925e-10
1.361850e-07 7.228456e-09 4.274324e-09
1.212669e-06 5.686110e-08 4.011038e-08
9.622088e-06 3.860879e-07 3.505244e-07
6.062167e-13 -2.438227e-16 6.027370e-13
1.177034e-11 9.328976e-13 1.805383e-13
1.406135e-10 1.022308e-11 1.617712e-12
1.566382e-09 1.035099e-10 1.905634e-11
1.636989e-08 9.780173e-10 2.098244e-10
1.559858e-07 8.276346e-09 2.164384e-09
1.387289e-06 6.501757e-08 2.030593e-08
1.099248e-05 4.407838e-07 1.773822e-07
1.181293e-11 9.375301e-13 2.623022e-14
1.421321e-10 1.033504e-11 8.062140e-15
1.583205e-09 1.046192e-10 6.565391e-16
1.654458e-08 9.884335e-10 1.918991e-16
1.576378e-07 8.363774e-09 2.901357e-18
1.401844e-06 6.569727e-08 8.731595e-19
1.110657e-05 4.453360e-07 -6.150974e-19
8.159992e-05 2.783627e-06 -1.066454e-18
1.152330e-11 9.276784e-13 -7.043967e-14
1.405890e-10 1.022588e-11 -1.583132e-12
1.566374e-09 1.035097e-10 -1.905289e-11
1.636989e-08 9.780174e-10 -2.098239e-10
1.559858e-07 8.276346e-09 -2.164384e-09
1.387289e-06 6.501757e-08 -2.030593e-08
1.099248e-05 4.407838e-07 -1.773822e-07
8.077339e-05 2.755643e-06 -1.375319e-06
9.649294e-12 7.943527e-13 -1.887256e-13
1.223636e-10 8.910619e-12 -3.136732e-12
1.364773e-09 9.020864e-11 -3.761200e-11
1.427656e-08 8.531969e-10 -4.142920e-10
1.361850e-07 7.228456e-09 -4.274324e-09
1.212669e-06 5.686110e-08 -4.011038e-08
9.622088e-06 3.860879e-07 -3.505244e-07
7.081777e-05 2.418213e-06 -2.719026e-06
6.986848e-13 3.816479e-13 6.052730e-14
8.687234e-12 6.840793e-13 2.196086e-13
1.053567e-10 7.265183e-12 2.718901e-12
1.187038e-09 7.353315e-11 3.270791e-11
1.255038e-08 6.947028e-10 3.640403e-10
1.209853e-07 5.840482e-09 3.796000e-09
1.088922e-06 4.549499e-08 3.599594e-08
7.563575e-13 1.088585e-13 3.486853e-14
9.961244e-12 7.512154e-13 1.118257e-13
1.210146e-10 8.332748e-12 1.377033e-12
1.362353e-09 8.436427e-11 1.656734e-11
1.439035e-08 7.962147e-10 1.843696e-10
1.385731e-07 6.685686e-09 1.922140e-09
1.245690e-06 5.200457e-08 1.822260e-08
1.006626e-11 7.578836e-13 1.740412e-15
1.223214e-10 8.421279e-12 3.693254e-16
1.376984e-09 8.526749e-11 3.652969e-17
1.454389e-08 8.046828e-10 2.559320e-17
1.400404e-07 6.756161e-09 6.507480e-20
1.258755e-06 5.254648e-08 1.304241e-22
1.007731e-05 3.467962e-07 2.135282e-21
7.483975e-05 2.100267e-06 -6.619952e-20
9.949480e-12 7.346692e-13 -1.028062e-13
1.210130e-10 8.327804e-12 -1.374978e-12
1.362352e-09 8.436386e-11 -1.656695e-11
1.439035e-08 7.962146e-10 -1.843695e-10
1.385731e-07 6.685686e-09 -1.922140e-09
1.245690e-06 5.200457e-08 -1.822260e-08
9.973823e-06 3.432696e-07 -1.608826e-07
7.408201e-05 2.079341e-06 -1.260269e-06
8.637461e-12 6.182980e-13 -2.057049e-13
1.053489e-10 7.244930e-12 -2.715672e-12
1.187037e-09 7.353104e-11 -3.270723e-11
1.255038e-08 6.947024e-10 -3.640402e-10
1.209853e-07 5.840482e-09 -3.796000e-09
1.088922e-06 4.549499e-08 -3.599594e-08
8.730736e-06 3.008264e-07 -3.179286e-07
6.495414e-05 1.826217e-06 -2.491663e-06
5.213507e-13 5.324090e-14 2.356171e-14
6.759116e-12 4.537341e-13 1.669618e-13
8.305703e-11 4.972762e-12 2.138698e-12
9.463624e-10 4.982099e-11 2.603611e-11
1.012214e-08 4.642924e-10 2.930532e-10
9.868055e-08 3.782738e-09 3.090985e-09
8.987130e-07 2.841688e-08 2.963712e-08
5.907990e-13 4.427272e-14 1.320782e-14
7.762278e-12 5.175478e-13 8.508215e-14