# vtk DataFile Version 2.0
Simplicial Mesh Example
ASCII
DATASET UNSTRUCTURED_GRID
POINTS 1302 double
0.000000e+00 1.000000e+00 5.000000e-01
-5.551115e-17 1.000000e+00 3.000000e-01
3.302130e-02 6.666667e-01 5.000000e-01
3.302130e-02 6.666667e-01 3.000000e-01
-2.000000e-01 1.000000e+00 5.000000e-01
-2.000000e-01 1.000000e+00 3.000000e-01
-1.691801e-01 6.666667e-01 5.000000e-01
-1.691801e-01 6.666667e-01 3.000000e-01
-4.000000e-01 1.000000e+00 5.000000e-01
-4.000000e-01 1.000000e+00 3.000000e-01
-3.713816e-01 6.666667e-01 5.000000e-01
-3.713816e-01 6.666667e-01 3.000000e-01
-6.000000e-01 1.000000e+00 5.000000e-01
-6.000000e-01 1.000000e+00 3.000000e-01
-5.735829e-01 6.666667e-01 5.000000e-01
-5.735829e-01 6.666667e-01 3.000000e-01
-8.000000e-01 1.000000e+00 5.000000e-01
-8.000000e-01 1.000000e+00 3.000000e-01
-7.757844e-01 6.666667e-01 5.000000e-01
-7.757844e-01 6.666667e-01 3.000000e-01
-1.000000e+00 1.000000e+00 5.000000e-01
-1.000000e+00 1.000000e+00 3.000000e-01
-9.779858e-01 6.666667e-01 5.000000e-01
-9.779858e-01 6.666667e-01 3.000000e-01
-1.200000e+00 1.000000e+00 5.000000e-01
-1.200000e+00 1.000000e+00 3.000000e-01
-1.180187e+00 6.666667e-01 5.000000e-01
-1.180187e+00 6.666667e-01 3.000000e-01
-2.000000e-01 1.000000e+00 1.000000e-01
-1.691801e-01 6.666667e-01 1.000000e-01
-4.000000e-01 1.000000e+00 1.000000e-01
-3.713816e-01 6.666667e-01 1.000000e-01
-6.000000e-01 1.000000e+00 1.000000e-01
-5.735829e-01 6.666667e-01 1.000000e-01
-8.000000e-01 1.000000e+00 1.000000e-01
-7.757844e-01 6.666667e-01 1.000000e-01
-1.000000e+00 1.000000e+00 1.000000e-01
-9.779858e-01 6.666667e-01 1.000000e-01
-1.200000e+00 1.000000e+00 1.000000e-01
-1.180187e+00 6.666667e-01 1.000000e-01
-2.000000e-01 1.000000e+00 -1.000000e-01
-1.691801e-01 6.666667e-01 -1.000000e-01
-4.000000e-01 1.000000e+00 -1.000000e-01
-3.713816e-01 6.666667e-01 -1.000000e-01
-6.000000e-01 1.000000e+00 -1.000000e-01
-5.735829e-01 6.666667e-01 -1.000000e-01
-8.000000e-01 1.000000e+00 -1.000000e-01
-7.757844e-01 6.666667e-01 -1.000000e-01
-1.000000e+00 1.000000e+00 -1.000000e-01
-9.779858e-01 6.666667e-01 -1.000000e-01
-1.200000e+00 1.000000e+00 -1.000000e-01
-1.180187e+00 6.666667e-01 -1.000000e-01
-1.400000e+00 1.000000e+00 -1.000000e-01
-1.382389e+00 6.666667e-01 -1.000000e-01
-2.000000e-01 1.000000e+00 -3.000000e-01
-1.691801e-01 6.666667e-01 -3.000000e-01
-4.000000e-01 1.000000e+00 -3.000000e-01
-3.713816e-01 6.666667e-01 -3.000000e-01
-6.000000e-01 1.000000e+00 -3.000000e-01
-5.735829e-01 6.666667e-01 -3.000000e-01
-8.000000e-01 1.000000e+00 -3.000000e-01
-7.757844e-01 6.666667e-01 -3.000000e-01
-1.000000e+00 1.000000e+00 -3.000000e-01
-9.779858e-01 6.666667e-01 -3.000000e-01
-1.200000e+00 1.000000e+00 -3.000000e-01
-1.180187e+00 6.666667e-01 -3.000000e-01
-1.400000e+00 1.000000e+00 -3.000000e-01
-1.382389e+00 6.666667e-01 -3.000000e-01
-2.000000e-01 1.000000e+00 -5.000000e-01
-1.691801e-01 6.666667e-01 -5.000000e-01
-4.000000e-01 1.000000e+00 -5.000000e-01
-3.713816e-01 6.666667e-01 -5.000000e-01
-6.000000e-01 1.000000e+00 -5.000000e-01
-5.735829e-01 6.666667e-01 -5.000000e-01
-8.000000e-01 1.000000e+00 -5.000000e-01
-7.757844e-01 6.666667e-01 -5.000000e-01
-1.000000e+00 1.000000e+00 -5.000000e-01
-9.779858e-01 6.666667e-01 -5.000000e-01
-1.200000e+00 1.000000e+00 -5.000000e-01
-1.180187e+00 6.666667e-01 -5.000000e-01
-1.400000e+00 1.000000e+00 -5.000000e-01
-1.382389e+00 6.666667e-01 -5.000000e-01
6.604260e-02 3.333333e-01 5.000000e-01
6.604260e-02 3.333333e-01 3.000000e-01
-1.383602e-01 3.333333e-01 5.000000e-01
-1.383602e-01 3.333333e-01 3.000000e-01
-3.427631e-01 3.333333e-01 5.000000e-01
-3.427631e-01 3.333333e-01 3.000000e-01
-5.471659e-01 3.333333e-01 5.000000e-01
-5.471659e-01 3.333333e-01 3.000000e-01
-7.515687e-01 3.333333e-01 5.000000e-01
-7.515687e-01 3.333333e-01 3.000000e-01
-9.559716e-01 3.333333e-01 5.000000e-01
-9.559716e-01 3.333333e-01 3.000000e-01
-1.160374e+00 3.333333e-01 5.000000e-01
-1.160374e+00 3.333333e-01 3.000000e-01
-1.383602e-01 3.333333e-01 1.000000e-01
-3.427631e-01 3.333333e-01 1.000000e-01
-5.471659e-01 3.333333e-01 1.000000e-01
-7.515687e-01 3.333333e-01 1.000000e-01
-9.559716e-01 3.333333e-01 1.000000e-01
-1.160374e+00 3.333333e-01 1.000000e-01
-1.383602e-01 3.333333e-01 -1.000000e-01
-3.427631e-01 3.333333e-01 -1.000000e-01
-5.471659e-01 3.333333e-01 -1.000000e-01
-7.515687e-01 3.333333e-01 -1.000000e-01
-9.559716e-01 3.333333e-01 -1.000000e-01
-1.160374e+00 3.333333e-01 -1.000000e-01
-1.364777e+00 3.333333e-01 -1.000000e-01
-1.383602e-01 3.333333e-01 -3.000000e-01
-3.427631e-01 3.333333e-01 -3.000000e-01
-5.471659e-01 3.333333e-01 -3.000000e-01
-7.515687e-01 3.333333e-01 -3.000000e-01
-9.559716e-01 3.333333e-01 -3.000000e-01
-1.160374e+00 3.333333e-01 -3.000000e-01
-1.364777e+00 3.333333e-01 -3.000000e-01
-1.383602e-01 3.333333e-01 -5.000000e-01
-3.427631e-01 3.333333e-01 -5.000000e-01
-5.471659e-01 3.333333e-01 -5.000000e-01
-7.515687e-01 3.333333e-01 -5.000000e-01
-9.559716e-01 3.333333e-01 -5.000000e-01
-1.160374e+00 3.333333e-01 -5.000000e-01
-1.364777e+00 3.333333e-01 -5.000000e-01
9.906390e-02 -2.775558e-17 5.000000e-01
9.906390e-02 -5.551115e-17 3.000000e-01
-1.075404e-01 0.000000e+00 5.000000e-01
-1.075404e-01 0.000000e+00 3.000000e-01
-3.141446e-01 0.000000e+00 5.000000e-01
-3.141446e-01 0.000000e+00 3.000000e-01
-5.207489e-01 0.000000e+00 5.000000e-01
-5.207489e-01 0.000000e+00 3.000000e-01
-7.273532e-01 -5.551115e-17 5.000000e-01
-7.273532e-01 0.000000e+00 3.000000e-01
-9.339574e-01 0.000000e+00 5.000000e-01
-9.339574e-01 0.000000e+00 3.000000e-01
-1.140562e+00 0.000000e+00 5.000000e-01
-1.140562e+00 0.000000e+00 3.000000e-01
-1.075404e-01 -2.775558e-17 1.000000e-01
-3.141446e-01 0.000000e+00 1.000000e-01
-5.207489e-01 -2.775558e-17 1.000000e-01
-7.273532e-01 0.000000e+00 1.000000e-01
-9.339574e-01 0.000000e+00 1.000000e-01
-1.140562e+00 -2.775558e-17 1.000000e-01
-1.075404e-01 0.000000e+00 -1.000000e-01
-3.141446e-01 0.000000e+00 -1.000000e-01
-5.207489e-01 -2.775558e-17 -1.000000e-01
-7.273532e-01 0.000000e+00 -1.000000e-01
-9.339574e-01 0.000000e+00 -1.000000e-01
-1.140562e+00 -2.775558e-17 -1.000000e-01
-1.347166e+00 0.000000e+00 -1.000000e-01
-1.075404e-01 -2.775558e-17 -3.000000e-01
-3.141446e-01 0.000000e+00 -3.000000e-01
-5.207489e-01 0.000000e+00 -3.000000e-01
-7.273532e-01 -2.775558e-17 -3.000000e-01
-9.339574e-01 -2.775558e-17 -3.000000e-01
-1.140562e+00 -2.775558e-17 -3.000000e-01
-1.347166e+00 -5.551115e-17 -3.000000e-01
-1.075404e-01 0.000000e+00 -5.000000e-01
-3.141446e-01 0.000000e+00 -5.000000e-01
-5.207489e-01 0.000000e+00 -5.000000e-01
-7.273532e-01 0.000000e+00 -5.000000e-01
-9.339574e-01 0.000000e+00 -5.000000e-01
-1.140562e+00 0.000000e+00 -5.000000e-01
-1.347166e+00 -5.551115e-17 -5.000000e-01
1.320852e-01 -3.333333e-01 5.000000e-01
1.320852e-01 -3.333333e-01 3.000000e-01
-7.672048e-02 -3.333333e-01 5.000000e-01
-7.672048e-02 -3.333333e-01 3.000000e-01
-2.855262e-01 -3.333333e-01 5.000000e-01
-2.855262e-01 -3.333333e-01 3.000000e-01
-4.943318e-01 -3.333333e-01 5.000000e-01
-4.943318e-01 -3.333333e-01 3.000000e-01
-7.031375e-01 -3.333333e-01 5.000000e-01
-7.031375e-01 -3.333333e-01 3.000000e-01
-9.119432e-01 -3.333333e-01 5.000000e-01
-9.119432e-01 -3.333333e-01 3.000000e-01
-7.672048e-02 -3.333333e-01 1.000000e-01
-2.855262e-01 -3.333333e-01 1.000000e-01
-4.943318e-01 -3.333333e-01 1.000000e-01
-7.031375e-01 -3.333333e-01 1.000000e-01
-9.119432e-01 -3.333333e-01 1.000000e-01
-7.672048e-02 -3.333333e-01 -1.000000e-01
-2.855262e-01 -3.333333e-01 -1.000000e-01
-4.943318e-01 -3.333333e-01 -1.000000e-01
-7.031375e-01 -3.333333e-01 -1.000000e-01
-9.119432e-01 -3.333333e-01 -1.000000e-01
-1.120749e+00 -3.333333e-01 -1.000000e-01
-1.329555e+00 -3.333333e-01 -1.000000e-01
-7.672048e-02 -3.333333e-01 -3.000000e-01
-2.855262e-01 -3.333333e-01 -3.000000e-01
-4.943318e-01 -3.333333e-01 -3.000000e-01
-7.031375e-01 -3.333333e-01 -3.000000e-01
-9.119432e-01 -3.333333e-01 -3.000000e-01
-1.120749e+00 -3.333333e-01 -3.000000e-01
-1.329555e+00 -3.333333e-01 -3.000000e-01
-7.672048e-02 -3.333333e-01 -5.000000e-01
-2.855262e-01 -3.333333e-01 -5.000000e-01
-4.943318e-01 -3.333333e-01 -5.000000e-01
-7.031375e-01 -3.333333e-01 -5.000000e-01
-9.119432e-01 -3.333333e-01 -5.000000e-01
-1.120749e+00 -3.333333e-01 -5.000000e-01
-1.329555e+00 -3.333333e-01 -5.000000e-01
1.651065e-01 -6.666667e-01 5.000000e-01
1.651065e-01 -6.666667e-01 3.000000e-01
-4.590059e-02 -6.666667e-01 5.000000e-01
-4.590059e-02 -6.666667e-01 3.000000e-01
-2.569077e-01 -6.666667e-01 5.000000e-01
-2.569077e-01 -6.666667e-01 3.000000e-01
-4.679148e-01 -6.666667e-01 5.000000e-01
-4.679148e-01 -6.666667e-01 3.000000e-01
-6.789219e-01 -6.666667e-01 5.000000e-01
-6.789219e-01 -6.666667e-01 3.000000e-01
-8.899290e-01 -6.666667e-01 5.000000e-01
-8.899290e-01 -6.666667e-01 3.000000e-01
-4.590059e-02 -6.666667e-01 1.000000e-01
-2.569077e-01 -6.666667e-01 1.000000e-01
-4.679148e-01 -6.666667e-01 1.000000e-01
-6.789219e-01 -6.666667e-01 1.000000e-01
-8.899290e-01 -6.666667e-01 1.000000e-01
-4.590059e-02 -6.666667e-01 -1.000000e-01
-2.569077e-01 -6.666667e-01 -1.000000e-01
-4.679148e-01 -6.666667e-01 -1.000000e-01
-6.789219e-01 -6.666667e-01 -1.000000e-01
-8.899290e-01 -6.666667e-01 -1.000000e-01
-1.100936e+00 -6.666667e-01 -1.000000e-01
-1.311943e+00 -6.666667e-01 -1.000000e-01
-4.590059e-02 -6.666667e-01 -3.000000e-01
-2.569077e-01 -6.666667e-01 -3.000000e-01
-4.679148e-01 -6.666667e-01 -3.000000e-01
-6.789219e-01 -6.666667e-01 -3.000000e-01
-8.899290e-01 -6.666667e-01 -3.000000e-01
-1.100936e+00 -6.666667e-01 -3.000000e-01
-1.311943e+00 -6.666667e-01 -3.000000e-01
-4.590059e-02 -6.666667e-01 -5.000000e-01
-2.569077e-01 -6.666667e-01 -5.000000e-01
-4.679148e-01 -6.666667e-01 -5.000000e-01
-6.789219e-01 -6.666667e-01 -5.000000e-01
-8.899290e-01 -6.666667e-01 -5.000000e-01
-1.100936e+00 -6.666667e-01 -5.000000e-01
-1.311943e+00 -6.666667e-01 -5.000000e-01
1.981278e-01 -1.000000e+00 5.000000e-01
1.981278e-01 -1.000000e+00 3.000000e-01
[...]
CELL_DATA 900
SCALARS Density double 1
LOOKUP_TABLE default
1.000000e+00
1.000000e+00
1.000000e+00
1.000000e+00
1.000000e+00
1.000000e+00
1.000000e+00
1.000000e+00
1.000000e+00
1.000000e+00
1.000000e+00
1.000000e+00
1.000000e+00
1.000000e+00
1.000000e+00
1.000000e+00
1.000000e+00
1.000000e+00
1.000000e+00
1.000000e+00
1.000000e+00
1.000000e+00
1.000000e+00
1.000000e+00
1.000000e+00
1.000000e+00
1.000000e+00
1.000000e+00
1.000000e+00
1.000000e+00
1.000000e+00
1.000000e+00
1.000000e+00
1.000000e+00
1.000000e+00
1.000000e+00
1.000000e+00
1.000000e+00
1.000000e+00
1.000000e+00
1.000000e+00
1.000000e+00
1.000000e+00
1.000000e+00
1.000000e+00
1.000000e+00
1.000000e+00
1.000000e+00
1.000000e+00
1.000000e+00
1.000000e+00
1.000000e+00
1.000000e+00
1.000000e+00
1.000000e+00
1.000000e+00
1.000000e+00
1.000000e+00
1.000000e+00
1.000000e+00
1.000000e+00
1.000000e+00
1.000000e+00
1.000000e+00
1.000000e+00
1.000000e+00
1.000000e+00
1.000000e+00
1.000000e+00
1.000000e+00
1.000000e+00
1.000000e+00
1.000000e+00
1.000000e+00
1.000000e+00
1.000000e+00
1.000000e+00
1.000000e+00
1.000000e+00
1.000000e+00
1.000000e+00
1.000000e+00
1.000000e+00
1.000000e+00
1.000000e+00
1.000000e+00
1.000000e+00
1.000000e+00
1.000000e+00
1.000000e+00
1.000000e+00
1.000000e+00
1.000000e+00
1.000000e+00
1.000000e+00
1.000000e+00
1.000000e+00
1.000000e+00
1.000000e+00
1.000000e+00
1.000000e+00
1.000000e+00
1.000000e+00
1.000000e+00
1.000000e+00
1.000000e+00
1.000000e+00
1.000000e+00
1.000000e+00
1.000000e+00
1.000000e+00
1.000000e+00
1.000000e+00
1.000000e+00
1.000000e+00
1.000000e+00
1.000000e+00
1.000000e+00
1.000000e+00
1.000000e+00
1.000000e+00
1.000000e+00
1.000000e+00
1.000000e+00
1.000000e+00
1.000000e+00
1.000000e+00
1.000000e+00
1.000000e+00
1.000000e+00
1.000000e+00
1.000000e+00
1.000000e+00
1.000000e+00
1.000000e+00
1.000000e+00
1.000000e+00
1.000000e+00
1.000000e+00
1.000000e+00
1.000000e+00
1.000000e+00
1.000000e+00
1.000000e+00
1.000000e+00
1.000000e+00
1.000000e+00
1.000000e+00
1.000000e+00
1.000000e+00
1.000000e+00
1.000000e+00
1.000000e+00
1.000000e+00
1.000000e+00
1.000000e+00
1.000000e+00
1.000000e+00
1.000000e+00
1.000000e+00
1.000000e+00
1.000000e+00
1.000000e+00
1.000000e+00
1.000000e+00
1.000000e+00
1.000000e+00
1.000000e+00
1.000000e+00
1.000000e+00
1.000000e+00
1.000000e+00
1.000000e+00
1.000000e+00
1.000000e+00
1.000000e+00
1.000000e+00
1.000000e+00
1.000000e+00
1.000000e+00
1.000000e+00
1.000000e+00
1.000000e+00
1.000000e+00
1.000000e+00
1.000000e+00
1.000000e+00
1.000000e+00
1.000000e+00
1.000000e+00
1.000000e+00
1.000000e+00
1.000000e+00
1.000000e+00
1.000000e+00
1.000000e+00
1.000000e+00
1.000000e+00
1.000000e+00
1.000000e+00
1.000000e+00
1.000000e+00
1.000000e+00
1.000000e+00
1.000000e+00
1.000000e+00
1.000000e+00
1.000000e+00
1.000000e+00
1.000000e+00
1.000000e+00
1.000000e+00
1.000000e+00
1.000000e+00
1.000000e+00
1.000000e+00
1.000000e+00
1.000000e+00
1.000000e+00
1.000000e+00
1.000000e+00
1.000000e+00
1.000000e+00
1.000000e+00
1.000000e+00
1.000000e+00
1.000000e+00
1.000000e+00
1.000000e+00
1.000000e+00
1.000000e+00
1.000000e+00
1.000000e+00
1.000000e+00
1.000000e+00
1.000000e+00
1.000000e+00
1.000000e+00
1.000001e+00
1.000021e+00
1.000220e+00
1.002221e+00
1.013693e+00
1.072392e+00
1.000000e+00
1.000000e+00
1.000002e+00
1.000022e+00
1.000231e+00
1.002324e+00
1.014263e+00
1.074439e+00
1.000000e+00
1.000002e+00
1.000022e+00
1.000232e+00
1.002328e+00
1.014282e+00
1.074509e+00
1.000000e+00
1.000002e+00
1.000022e+00
1.000231e+00
1.002324e+00
1.014263e+00
1.074439e+00
1.000000e+00
1.000001e+00
1.000021e+00
1.000220e+00
1.002221e+00
1.013693e+00
1.072392e+00
1.000000e+00
1.000000e+00
1.000001e+00
1.000021e+00
1.000217e+00
1.002213e+00
1.013728e+00
1.073006e+00
1.000000e+00
1.000000e+00
1.000002e+00
1.000022e+00
1.000228e+00
1.002315e+00
1.014301e+00
1.075085e+00
1.000000e+00
1.000002e+00
1.000022e+00
1.000228e+00
1.002319e+00
1.014320e+00
1.075156e+00
1.000000e+00
1.000002e+00
1.000022e+00
1.000228e+00
1.002315e+00
1.014301e+00
1.075085e+00
1.000000e+00
1.000001e+00
1.000021e+00
1.000217e+00
1.002213e+00
1.013728e+00
1.073006e+00
1.000000e+00
1.000000e+00
1.000001e+00
1.000020e+00
1.000208e+00
1.002145e+00
1.013432e+00
1.072379e+00
1.000000e+00
1.000000e+00
1.000001e+00
1.000021e+00
1.000219e+00
1.002244e+00
1.013993e+00
1.074442e+00
1.000000e+00
1.000001e+00
1.000021e+00
1.000219e+00
1.002248e+00
1.014011e+00
1.074513e+00
1.000000e+00
1.000001e+00
1.000021e+00
1.000219e+00
1.002244e+00
1.013993e+00
1.074442e+00
1.000000e+00
1.000001e+00
1.000020e+00
1.000208e+00
1.002145e+00
1.013432e+00
1.072379e+00
1.000000e+00
1.000000e+00
1.000001e+00
1.000019e+00
1.000200e+00
1.002079e+00
1.013137e+00
1.071731e+00
1.000000e+00
1.000000e+00
1.000001e+00
1.000020e+00
1.000209e+00
1.002175e+00
1.013686e+00
1.073777e+00
1.000000e+00
1.000001e+00
1.000020e+00
1.000210e+00
1.002178e+00
1.013704e+00
1.073848e+00
1.000000e+00
1.000001e+00
1.000020e+00
1.000209e+00
1.002175e+00
1.013686e+00
1.073777e+00
1.000000e+00
1.000001e+00
1.000019e+00
1.000200e+00
1.002079e+00
1.013137e+00
1.071731e+00
1.000000e+00
1.000000e+00
1.000000e+00
1.000001e+00
1.000018e+00
1.000191e+00
1.002014e+00
1.012844e+00
1.071062e+00
1.000000e+00
1.000000e+00
1.000000e+00
1.000001e+00
1.000019e+00
1.000201e+00
1.002107e+00
1.013380e+00
1.073090e+00
1.000000e+00
1.000001e+00
1.000019e+00
1.000201e+00
1.002110e+00
1.013398e+00
1.073160e+00
1.000000e+00
1.000001e+00
1.000019e+00
1.000201e+00
1.002107e+00
1.013380e+00
1.073090e+00
1.000000e+00
1.000001e+00
1.000018e+00
1.000191e+00
1.002014e+00
1.012844e+00
1.071062e+00
1.000000e+00
1.000000e+00
1.000000e+00
1.000001e+00
1.000016e+00
1.000178e+00
1.001898e+00
1.012249e+00
1.069223e+00
1.000000e+00
1.000000e+00
1.000000e+00
1.000001e+00
1.000017e+00
1.000187e+00
1.001986e+00
1.012759e+00
1.071188e+00
1.000000e+00
1.000001e+00
1.000017e+00
1.000187e+00
1.001989e+00
1.012776e+00
1.071256e+00
1.000000e+00
1.000001e+00
1.000017e+00
1.000187e+00
1.001986e+00
1.012759e+00
1.071188e+00
1.000000e+00
1.000001e+00
1.000016e+00
1.000178e+00
1.001898e+00
1.012249e+00
1.069223e+00
1.000000e+00
1.000000e+00
1.000000e+00
1.000000e+00
1.000000e+00
1.000000e+00
1.000000e+00
1.000000e+00
1.000000e+00
1.000000e+00
1.000000e+00
1.000000e+00
1.000000e+00
1.000000e+00
1.000000e+00
1.000000e+00
1.000000e+00
1.000000e+00
1.000000e+00
1.000000e+00
1.000000e+00
1.000000e+00
1.000000e+00
1.000000e+00
1.000000e+00
1.000000e+00
1.000000e+00
1.000000e+00
1.000000e+00
1.000000e+00
1.000000e+00
1.000000e+00
1.000000e+00
1.000000e+00
1.000000e+00
1.000000e+00
1.000000e+00
1.000000e+00
1.000000e+00
1.000000e+00
1.000000e+00
1.000000e+00
1.000000e+00
1.000000e+00
1.000000e+00
1.000000e+00
1.000000e+00
1.000000e+00
1.000000e+00
1.000000e+00
1.000000e+00
1.000000e+00
1.000000e+00
1.000000e+00
1.000000e+00
1.000000e+00
1.000000e+00
1.000000e+00
1.000000e+00
1.000000e+00
1.000000e+00
1.000000e+00
1.000000e+00
1.000000e+00
1.000000e+00
1.000000e+00
1.000000e+00
1.000000e+00
1.000000e+00
1.000000e+00
1.000000e+00
1.000000e+00
1.000000e+00
1.000000e+00
1.000000e+00
1.000000e+00
1.000000e+00
1.000000e+00
1.000000e+00
1.000000e+00
1.000000e+00
1.000000e+00
1.000000e+00
1.000000e+00
1.000000e+00
1.000000e+00
1.000000e+00
1.000000e+00
1.000000e+00
1.000000e+00
1.000000e+00
1.000000e+00
1.000000e+00
1.000000e+00
1.000000e+00
1.000000e+00
1.000000e+00
1.000000e+00
1.000000e+00
1.000000e+00
1.000000e+00
1.000000e+00
1.000000e+00
1.000000e+00
1.000000e+00
1.000000e+00
1.000000e+00
1.000000e+00
1.000000e+00
1.000000e+00
1.000000e+00
1.000000e+00
1.000000e+00
1.000000e+00
1.000000e+00
1.000000e+00
1.000000e+00
1.000000e+00
1.000000e+00
1.000000e+00
1.000000e+00
1.000000e+00
1.000000e+00
1.000000e+00
1.000000e+00
1.000000e+00
1.000000e+00
1.000000e+00
1.000000e+00
1.000000e+00
1.000000e+00
1.000000e+00
1.000000e+00
1.000000e+00
1.000000e+00
1.000000e+00
1.000000e+00
1.000000e+00
1.000000e+00
1.000000e+00
1.000000e+00
1.000000e+00
1.000000e+00
1.000000e+00
1.000000e+00
1.000000e+00
1.000000e+00
1.000000e+00
1.000000e+00
1.000000e+00
1.000000e+00
1.000000e+00
1.000000e+00
1.000000e+00
1.000000e+00
1.000000e+00
1.000000e+00
1.000000e+00
1.000000e+00
1.000000e+00
1.000000e+00
1.000000e+00
1.000000e+00
1.000000e+00
1.000000e+00
1.000000e+00
1.000000e+00
1.000000e+00
1.000000e+00
1.000000e+00
1.000000e+00
1.000000e+00
1.000000e+00
1.000000e+00
1.000000e+00
1.000000e+00
1.000000e+00
1.000000e+00
1.000000e+00
1.000000e+00
1.000000e+00
1.000000e+00
1.000000e+00
1.000000e+00
1.000000e+00
1.000000e+00
1.000000e+00
1.000000e+00
1.000000e+00
1.000000e+00
1.000000e+00
1.000000e+00
1.000000e+00
1.000000e+00
1.000000e+00
1.000000e+00
1.000000e+00
1.000000e+00
1.000000e+00
1.000000e+00
1.000000e+00
1.000000e+00
1.000000e+00
1.000000e+00
1.000000e+00
1.000000e+00
1.000000e+00
1.000000e+00
1.000000e+00
1.000000e+00
1.000000e+00
1.000000e+00
1.000000e+00
1.000000e+00
1.000000e+00
1.000000e+00
1.000000e+00
1.000000e+00
1.000000e+00
1.000000e+00
1.000000e+00
1.000000e+00
1.000000e+00
1.000000e+00
1.000000e+00
1.000000e+00
1.000000e+00
1.000000e+00
1.000000e+00
1.000000e+00
1.000000e+00
1.000000e+00
1.000000e+00
1.000000e+00
1.000000e+00
1.000000e+00
1.000000e+00
1.000000e+00
1.000000e+00
1.000000e+00
1.000000e+00
1.000000e+00
1.000000e+00
1.000000e+00
1.000000e+00
1.000000e+00
1.000000e+00
1.000000e+00
1.000000e+00
1.000000e+00
1.000000e+00
1.000000e+00
1.000000e+00
1.000000e+00
1.000000e+00
1.000000e+00
1.000000e+00
1.000000e+00
1.000000e+00
1.000000e+00
1.000000e+00
1.000000e+00
1.000000e+00
1.000000e+00
1.000000e+00
1.000000e+00
1.000000e+00
1.000000e+00
1.000000e+00
1.000000e+00
1.000000e+00
1.000000e+00
1.000000e+00
1.000000e+00
1.000000e+00
1.000000e+00
1.000000e+00
1.000000e+00
1.000000e+00
1.000000e+00
1.000000e+00
1.000000e+00
1.000000e+00
1.000000e+00
1.000000e+00
1.000000e+00
1.000000e+00
1.000000e+00
1.000000e+00
1.000000e+00
1.000000e+00
1.000000e+00
1.000000e+00
1.000000e+00
1.000000e+00
1.000000e+00
1.000000e+00
1.000000e+00
1.000000e+00
1.000000e+00
1.000000e+00
1.000000e+00
1.000000e+00
1.000000e+00
1.000000e+00
1.000000e+00
1.000000e+00
1.000000e+00
1.000000e+00
1.000000e+00
1.000000e+00
1.000000e+00
1.000000e+00
1.000000e+00
1.000000e+00
1.000000e+00
1.000000e+00
1.000000e+00
1.000000e+00
1.000000e+00
1.000000e+00
1.000000e+00
1.000000e+00
1.000000e+00
1.000000e+00
1.000000e+00
1.000000e+00
1.000000e+00
1.000000e+00
1.000000e+00
1.000000e+00
1.000000e+00
1.000000e+00
1.000000e+00
1.000000e+00
1.000000e+00
1.000000e+00
1.000000e+00
1.000000e+00
1.000000e+00
1.000000e+00
1.000000e+00
1.000000e+00
1.000000e+00
1.000000e+00
1.000000e+00
1.000000e+00
1.000000e+00
1.000000e+00
1.000000e+00
1.000000e+00
1.000000e+00
1.000000e+00
1.000000e+00
1.000000e+00
1.000000e+00
1.000000e+00
1.000000e+00
1.000000e+00
1.000000e+00
1.000000e+00
1.000000e+00
1.000000e+00
1.000000e+00
1.000000e+00
1.000000e+00
1.000000e+00
1.000000e+00
1.000000e+00
1.000000e+00
1.000000e+00
1.000000e+00
1.000000e+00
1.000000e+00
1.000000e+00
1.000000e+00
1.000000e+00
1.000000e+00
1.000000e+00
1.000000e+00
1.000000e+00
1.000000e+00
1.000000e+00
1.000000e+00
1.000000e+00
1.000000e+00
1.000000e+00
1.000000e+00
1.000000e+00
1.000000e+00
1.000000e+00
1.000000e+00
1.000000e+00
1.000000e+00
1.000000e+00
1.000000e+00
1.000000e+00
1.000000e+00
1.000000e+00
1.000000e+00
1.000000e+00
1.000000e+00
1.000000e+00
1.000000e+00
1.000000e+00
1.000000e+00
1.000000e+00
1.000000e+00
1.000000e+00
1.000000e+00
1.000000e+00
1.000000e+00
1.000000e+00
1.000000e+00
1.000000e+00
1.000000e+00
1.000000e+00
1.000000e+00
1.000000e+00
1.000000e+00
1.000000e+00
1.000000e+00
1.000000e+00
1.000000e+00
1.000000e+00
1.000000e+00
1.000000e+00
1.000000e+00
1.000000e+00
1.000000e+00
1.000000e+00
1.000000e+00
1.000000e+00
1.000000e+00
1.000000e+00
1.000000e+00
1.000000e+00
1.000000e+00
VECTORS Momentum double
-4.041212e-18 2.489120e-17 -1.821994e-17
0.000000e+00 -4.665712e-18 1.504714e-17
-1.176836e-18 5.773160e-19 3.187028e-21
2.114755e-15 1.614740e-16 1.035923e-18
8.041751e-14 5.739599e-15 2.870213e-16
2.168414e-12 1.408087e-13 1.019623e-14
5.450291e-11 3.198422e-12 2.751247e-13
1.197582e-09 6.245782e-11 6.806424e-12
7.771561e-18 -4.854450e-18 1.821994e-17
-7.771561e-18 3.388956e-18 -1.504713e-17
3.110845e-17 4.635181e-18 1.348165e-21
2.237650e-15 1.884806e-16 4.305569e-19
8.485748e-14 6.066951e-15 1.172517e-16
2.290061e-12 1.487880e-13 4.294413e-15
5.753386e-11 3.376296e-12 1.138696e-13
1.263676e-09 6.590382e-11 2.804969e-12
0.000000e+00 -1.049716e-17 7.523568e-18
2.982059e-17 4.252154e-18 1.007240e-33
2.239449e-15 1.826991e-16 2.047462e-31
8.507214e-14 6.074622e-15 6.624849e-29
2.293918e-12 1.489972e-13 -6.566911e-29
5.762769e-11 3.381657e-12 -3.964255e-27
1.265720e-09 6.600967e-11 -3.387264e-25
2.629332e-08 1.209611e-09 -3.511911e-23
-7.771561e-18 1.151024e-17 -7.523572e-18
3.110845e-17 4.635181e-18 -1.348537e-21
2.237628e-15 1.882586e-16 -4.306905e-19
8.485384e-14 6.069949e-15 -1.172074e-16
2.290061e-12 1.487883e-13 -4.294434e-15
5.753386e-11 3.376296e-12 -1.138696e-13
1.263676e-09 6.590382e-11 -2.804969e-12
2.625120e-08 1.207674e-09 -6.029979e-11
0.000000e+00 2.914335e-18 -8.493100e-24
-8.393286e-18 2.473022e-18 -3.191744e-21
2.114777e-15 1.646493e-16 -1.037552e-18
8.041802e-14 5.737845e-15 -2.873859e-16
2.168414e-12 1.408087e-13 -1.019688e-14
5.450291e-11 3.198422e-12 -2.751242e-13
1.197582e-09 6.245782e-11 -6.806424e-12
2.489103e-08 1.145121e-09 -1.468992e-10
-5.319967e-16 2.606431e-15 -3.372664e-17
-2.888800e-17 1.132983e-17 6.902227e-24
3.581579e-17 -7.116530e-18 2.732510e-21
1.851270e-15 1.481291e-16 9.507403e-19
7.274982e-14 5.089806e-15 2.755279e-16
1.988745e-12 1.264574e-13 9.458150e-15
5.054315e-11 2.893660e-12 2.552087e-13
1.122408e-09 5.674986e-11 6.381236e-12
-1.696421e-17 2.303713e-19 -2.188663e-17
2.291500e-17 5.442868e-18 2.942069e-24
-7.727152e-18 -5.723200e-18 1.158103e-21
1.972089e-15 1.521180e-16 3.991695e-19
7.686350e-14 5.416387e-15 1.141744e-16
2.100388e-12 1.336011e-13 3.969026e-15
5.335442e-11 3.054583e-12 1.055392e-13
1.184368e-09 5.988080e-11 2.629210e-12
-2.320366e-17 2.914335e-18 7.902823e-36
6.195044e-18 4.660161e-18 3.125445e-33
1.949462e-15 1.484959e-16 1.029156e-30
7.704317e-14 5.429802e-15 2.382022e-29
2.103818e-12 1.337642e-13 1.996408e-27
5.344082e-11 3.059340e-12 9.874447e-26
1.186283e-09 5.997730e-11 -6.579724e-25
2.491504e-08 1.105525e-09 -1.348576e-23
2.262635e-17 -2.964295e-18 -2.942171e-24
-8.770762e-18 -9.278689e-18 -1.158120e-21
1.977706e-15 1.495451e-16 -3.991718e-19
7.686381e-14 5.416095e-15 -1.141747e-16
2.100388e-12 1.336007e-13 -3.969062e-15
5.335442e-11 3.054581e-12 -1.055399e-13
1.184368e-09 5.988079e-11 -2.629210e-12
2.487511e-08 1.103754e-09 -5.713670e-11
2.955414e-17 -3.355372e-17 -6.901832e-24
2.857714e-17 -2.459144e-18 -2.731831e-21
1.851425e-15 1.481347e-16 -9.501672e-19
7.274998e-14 5.089637e-15 -2.753060e-16
1.988745e-12 1.264572e-13 -9.458205e-15
5.054315e-11 2.893660e-12 -2.552092e-13
1.122408e-09 5.674986e-11 -6.381236e-12
2.358588e-08 1.046595e-09 -1.391896e-10
-3.206073e-14 -6.704529e-15 -8.348140e-15
-4.286515e-15 -4.408440e-16 -4.902490e-17
-2.240430e-17 -7.763234e-18 1.331183e-20
1.487873e-15 1.096501e-16 1.643148e-18
6.399242e-14 4.462827e-15 3.396284e-16
1.768919e-12 1.113490e-13 8.445808e-15
4.545280e-11 2.570928e-12 2.295978e-13
1.020185e-09 5.078000e-11 5.800842e-12
2.695922e-15 2.560330e-16 -4.490054e-15
8.726353e-18 -1.831868e-19 -3.460227e-17
3.443912e-17 6.253331e-18 -2.360541e-19
1.632046e-15 1.333531e-16 -6.998019e-18
6.760723e-14 4.715955e-15 1.443044e-16
1.868245e-12 1.176916e-13 3.490941e-15
4.798109e-11 2.713653e-12 9.475240e-14
1.076500e-09 5.358048e-11 2.390210e-12
1.110223e-18 2.939315e-18 6.820237e-18
-2.997602e-18 3.316791e-18 -3.261241e-25
1.656848e-15 1.351073e-16 -2.116518e-22
6.770695e-14 4.722951e-15 -6.732814e-20
1.871098e-12 1.178080e-13 -9.009063e-20
4.805895e-11 2.718143e-12 -1.350326e-19
1.078242e-09 5.366700e-11 -3.238534e-19
2.289238e-08 9.972347e-10 2.167525e-19
1.169731e-16 1.251221e-17 -6.031510e-17
2.819966e-17 5.284662e-18 2.309705e-19
1.625429e-15 1.386739e-16 6.757340e-18
6.761014e-14 4.714626e-15 -1.513799e-16
1.868245e-12 1.176899e-13 -3.497526e-15
4.798108e-11 2.713652e-12 -9.475881e-14
1.076500e-09 5.358048e-11 -2.390221e-12
2.285570e-08 9.956376e-10 -5.249197e-11
5.872547e-15 5.812865e-16 -1.040224e-16
6.183942e-17 8.357204e-18 -3.318861e-21
1.488361e-15 1.093392e-16 -1.174167e-18
6.399364e-14 4.463901e-15 -3.252087e-16
1.768909e-12 1.113508e-13 -8.443239e-15
4.545280e-11 2.570928e-12 -2.295944e-13
1.020185e-09 5.078000e-11 -5.800843e-12
2.167115e-08 9.440955e-10 -1.278739e-10
3.138113e-14 5.346746e-16 1.080010e-14
5.490848e-15 5.159670e-16 9.043288e-17
4.933831e-17 3.436140e-18 -7.254686e-21
1.272373e-15 1.034491e-16 2.065801e-19
5.624973e-14 3.941041e-15 1.889968e-16
1.574900e-12 9.913867e-14 7.755065e-15
4.089743e-11 2.314470e-12 2.059484e-13
9.276634e-10 4.619172e-11 5.274078e-12
-5.916811e-16 -6.766471e-17 5.776941e-15
5.750955e-17 3.380629e-18 5.489102e-17
3.437250e-17 6.494805e-18 3.687919e-19
1.351800e-15 1.026939e-16 7.081120e-18
5.954543e-14 4.152258e-15 8.634936e-17
1.663076e-12 1.047400e-13 3.186597e-15
4.317166e-11 2.442669e-12 8.526283e-14
9.788704e-10 4.873881e-11 2.172632e-12
0.000000e+00 2.681189e-18 -5.896318e-18
-2.136069e-17 -6.769585e-18 4.114763e-26
1.358415e-15 1.110616e-16 1.715283e-23
5.958989e-14 4.159515e-15 4.581487e-20
1.665933e-12 1.049067e-13 1.347343e-19
4.324135e-11 2.446646e-12 1.491786e-19
9.804533e-10 4.881780e-11 -1.561958e-19
2.104002e-08 9.168449e-10 -1.735360e-19
-4.944933e-17 -4.801715e-19 3.027070e-17
3.428369e-17 6.714074e-18 -2.088992e-19
1.358905e-15 1.017724e-16 -6.862964e-18
5.953939e-14 4.151989e-15 -7.985974e-17
1.663077e-12 1.047399e-13 -3.180208e-15
4.317167e-11 2.442669e-12 -8.525674e-14
9.788703e-10 4.873881e-11 -2.172635e-12
2.100630e-08 9.153763e-10 -4.823895e-11
-3.881391e-15 -3.483793e-16 4.877883e-17
-2.398082e-17 -3.794187e-18 -1.265332e-21
1.272373e-15 9.741778e-17 -6.168989e-19
5.623448e-14 3.939956e-15 -2.026695e-16
1.574922e-12 9.914147e-14 -7.757311e-15
4.089743e-11 2.314470e-12 -2.059505e-13
9.276634e-10 4.619172e-11 -5.274067e-12
1.991764e-08 8.679908e-10 -1.175157e-10
4.508838e-16 3.452361e-15 5.824274e-17
6.292744e-17 3.577694e-17 3.187109e-24
-5.351275e-18 5.079270e-18 1.508149e-21
1.048509e-15 8.484564e-17 6.055696e-19
4.943560e-14 3.438865e-15 1.896761e-16
1.402782e-12 8.753983e-14 6.865110e-15
3.681153e-11 2.059939e-12 1.846839e-13
-1.503242e-17 3.821388e-17 3.475950e-17
8.282264e-18 3.844147e-18 1.359456e-24
3.363976e-17 2.270406e-18 6.532031e-22
1.136117e-15 9.952089e-17 2.615382e-19
5.232147e-14 3.650647e-15 8.042059e-17
1.480964e-12 9.227438e-14 2.821727e-15
3.885821e-11 2.174130e-12 7.612643e-14
-1.554312e-17 -3.844147e-18 3.588706e-35
2.953193e-18 -5.484502e-18 9.543295e-33
1.136494e-15 8.909590e-17 2.132739e-30
5.237726e-14 3.641707e-15 4.377005e-28
1.483256e-12 9.245865e-14 6.817259e-26
3.892158e-11 2.177738e-12 7.700651e-24
8.917708e-10 4.376506e-11 5.789125e-22
1.934091e-08 8.282826e-10 2.160742e-20
7.771561e-18 3.827494e-18 -1.359573e-24
3.363976e-17 2.317591e-18 -6.532265e-22
1.136317e-15 9.958473e-17 -2.615417e-19
5.232176e-14 3.650971e-15 -8.042085e-17
1.480964e-12 9.227908e-14 -2.821703e-15
3.885821e-11 2.174130e-12 -7.612636e-14
8.903298e-10 4.369430e-11 -1.976544e-12
1.930991e-08 8.269567e-10 -4.433770e-11
1.283418e-17 -1.166289e-17 -3.181758e-24
-5.351275e-18 5.070944e-18 -1.506520e-21
1.048309e-15 8.361329e-17 -6.055955e-19
4.943229e-14 3.436988e-15 -1.899365e-16
1.402783e-12 8.754060e-14 -6.864622e-15
3.681153e-11 2.059939e-12 -1.846837e-13
8.437561e-10 4.141092e-11 -4.796576e-12
1.830921e-08 7.841634e-10 -1.080104e-10
6.417089e-18 2.100264e-17 4.800937e-27
-7.771561e-18 0.000000e+00 2.530626e-24
1.041389e-17 4.005130e-18 1.254712e-21
8.439406e-16 6.832697e-17 5.214608e-19
4.209379e-14 2.862883e-15 1.619904e-16
1.208989e-12 7.339287e-14 5.560192e-15
3.207643e-11 1.737362e-12 1.605945e-13
-7.771561e-18 -7.296941e-18 2.010976e-27