# vtk DataFile Version 2.0
Simplicial Mesh Example
ASCII
DATASET UNSTRUCTURED_GRID
POINTS 1302 double
0.000000e+00 1.000000e+00 5.000000e-01
-5.551115e-17 1.000000e+00 3.000000e-01
3.302130e-02 6.666667e-01 5.000000e-01
3.302130e-02 6.666667e-01 3.000000e-01
-2.000000e-01 1.000000e+00 5.000000e-01
-2.000000e-01 1.000000e+00 3.000000e-01
-1.691801e-01 6.666667e-01 5.000000e-01
-1.691801e-01 6.666667e-01 3.000000e-01
-4.000000e-01 1.000000e+00 5.000000e-01
-4.000000e-01 1.000000e+00 3.000000e-01
-3.713816e-01 6.666667e-01 5.000000e-01
-3.713816e-01 6.666667e-01 3.000000e-01
-6.000000e-01 1.000000e+00 5.000000e-01
-6.000000e-01 1.000000e+00 3.000000e-01
-5.735829e-01 6.666667e-01 5.000000e-01
-5.735829e-01 6.666667e-01 3.000000e-01
-8.000000e-01 1.000000e+00 5.000000e-01
-8.000000e-01 1.000000e+00 3.000000e-01
-7.757844e-01 6.666667e-01 5.000000e-01
-7.757844e-01 6.666667e-01 3.000000e-01
-1.000000e+00 1.000000e+00 5.000000e-01
-1.000000e+00 1.000000e+00 3.000000e-01
-9.779858e-01 6.666667e-01 5.000000e-01
-9.779858e-01 6.666667e-01 3.000000e-01
-1.200000e+00 1.000000e+00 5.000000e-01
-1.200000e+00 1.000000e+00 3.000000e-01
-1.180187e+00 6.666667e-01 5.000000e-01
-1.180187e+00 6.666667e-01 3.000000e-01
-2.000000e-01 1.000000e+00 1.000000e-01
-1.691801e-01 6.666667e-01 1.000000e-01
-4.000000e-01 1.000000e+00 1.000000e-01
-3.713816e-01 6.666667e-01 1.000000e-01
-6.000000e-01 1.000000e+00 1.000000e-01
-5.735829e-01 6.666667e-01 1.000000e-01
-8.000000e-01 1.000000e+00 1.000000e-01
-7.757844e-01 6.666667e-01 1.000000e-01
-1.000000e+00 1.000000e+00 1.000000e-01
-9.779858e-01 6.666667e-01 1.000000e-01
-1.200000e+00 1.000000e+00 1.000000e-01
-1.180187e+00 6.666667e-01 1.000000e-01
-2.000000e-01 1.000000e+00 -1.000000e-01
-1.691801e-01 6.666667e-01 -1.000000e-01
-4.000000e-01 1.000000e+00 -1.000000e-01
-3.713816e-01 6.666667e-01 -1.000000e-01
-6.000000e-01 1.000000e+00 -1.000000e-01
-5.735829e-01 6.666667e-01 -1.000000e-01
-8.000000e-01 1.000000e+00 -1.000000e-01
-7.757844e-01 6.666667e-01 -1.000000e-01
-1.000000e+00 1.000000e+00 -1.000000e-01
-9.779858e-01 6.666667e-01 -1.000000e-01
-1.200000e+00 1.000000e+00 -1.000000e-01
-1.180187e+00 6.666667e-01 -1.000000e-01
-1.400000e+00 1.000000e+00 -1.000000e-01
-1.382389e+00 6.666667e-01 -1.000000e-01
-2.000000e-01 1.000000e+00 -3.000000e-01
-1.691801e-01 6.666667e-01 -3.000000e-01
-4.000000e-01 1.000000e+00 -3.000000e-01
-3.713816e-01 6.666667e-01 -3.000000e-01
-6.000000e-01 1.000000e+00 -3.000000e-01
-5.735829e-01 6.666667e-01 -3.000000e-01
-8.000000e-01 1.000000e+00 -3.000000e-01
-7.757844e-01 6.666667e-01 -3.000000e-01
-1.000000e+00 1.000000e+00 -3.000000e-01
-9.779858e-01 6.666667e-01 -3.000000e-01
-1.200000e+00 1.000000e+00 -3.000000e-01
-1.180187e+00 6.666667e-01 -3.000000e-01
-1.400000e+00 1.000000e+00 -3.000000e-01
-1.382389e+00 6.666667e-01 -3.000000e-01
-2.000000e-01 1.000000e+00 -5.000000e-01
-1.691801e-01 6.666667e-01 -5.000000e-01
-4.000000e-01 1.000000e+00 -5.000000e-01
-3.713816e-01 6.666667e-01 -5.000000e-01
-6.000000e-01 1.000000e+00 -5.000000e-01
-5.735829e-01 6.666667e-01 -5.000000e-01
-8.000000e-01 1.000000e+00 -5.000000e-01
-7.757844e-01 6.666667e-01 -5.000000e-01
-1.000000e+00 1.000000e+00 -5.000000e-01
-9.779858e-01 6.666667e-01 -5.000000e-01
-1.200000e+00 1.000000e+00 -5.000000e-01
-1.180187e+00 6.666667e-01 -5.000000e-01
-1.400000e+00 1.000000e+00 -5.000000e-01
-1.382389e+00 6.666667e-01 -5.000000e-01
6.604260e-02 3.333333e-01 5.000000e-01
6.604260e-02 3.333333e-01 3.000000e-01
-1.383602e-01 3.333333e-01 5.000000e-01
-1.383602e-01 3.333333e-01 3.000000e-01
-3.427631e-01 3.333333e-01 5.000000e-01
-3.427631e-01 3.333333e-01 3.000000e-01
-5.471659e-01 3.333333e-01 5.000000e-01
-5.471659e-01 3.333333e-01 3.000000e-01
-7.515687e-01 3.333333e-01 5.000000e-01
-7.515687e-01 3.333333e-01 3.000000e-01
-9.559716e-01 3.333333e-01 5.000000e-01
-9.559716e-01 3.333333e-01 3.000000e-01
-1.160374e+00 3.333333e-01 5.000000e-01
-1.160374e+00 3.333333e-01 3.000000e-01
-1.383602e-01 3.333333e-01 1.000000e-01
-3.427631e-01 3.333333e-01 1.000000e-01
-5.471659e-01 3.333333e-01 1.000000e-01
-7.515687e-01 3.333333e-01 1.000000e-01
-9.559716e-01 3.333333e-01 1.000000e-01
-1.160374e+00 3.333333e-01 1.000000e-01
-1.383602e-01 3.333333e-01 -1.000000e-01
-3.427631e-01 3.333333e-01 -1.000000e-01
-5.471659e-01 3.333333e-01 -1.000000e-01
-7.515687e-01 3.333333e-01 -1.000000e-01
-9.559716e-01 3.333333e-01 -1.000000e-01
-1.160374e+00 3.333333e-01 -1.000000e-01
-1.364777e+00 3.333333e-01 -1.000000e-01
-1.383602e-01 3.333333e-01 -3.000000e-01
-3.427631e-01 3.333333e-01 -3.000000e-01
-5.471659e-01 3.333333e-01 -3.000000e-01
-7.515687e-01 3.333333e-01 -3.000000e-01
-9.559716e-01 3.333333e-01 -3.000000e-01
-1.160374e+00 3.333333e-01 -3.000000e-01
-1.364777e+00 3.333333e-01 -3.000000e-01
-1.383602e-01 3.333333e-01 -5.000000e-01
-3.427631e-01 3.333333e-01 -5.000000e-01
-5.471659e-01 3.333333e-01 -5.000000e-01
-7.515687e-01 3.333333e-01 -5.000000e-01
-9.559716e-01 3.333333e-01 -5.000000e-01
-1.160374e+00 3.333333e-01 -5.000000e-01
-1.364777e+00 3.333333e-01 -5.000000e-01
9.906390e-02 -2.775558e-17 5.000000e-01
9.906390e-02 -5.551115e-17 3.000000e-01
-1.075404e-01 0.000000e+00 5.000000e-01
-1.075404e-01 0.000000e+00 3.000000e-01
-3.141446e-01 0.000000e+00 5.000000e-01
-3.141446e-01 0.000000e+00 3.000000e-01
-5.207489e-01 0.000000e+00 5.000000e-01
-5.207489e-01 0.000000e+00 3.000000e-01
-7.273532e-01 -5.551115e-17 5.000000e-01
-7.273532e-01 0.000000e+00 3.000000e-01
-9.339574e-01 0.000000e+00 5.000000e-01
-9.339574e-01 0.000000e+00 3.000000e-01
-1.140562e+00 0.000000e+00 5.000000e-01
-1.140562e+00 0.000000e+00 3.000000e-01
-1.075404e-01 -2.775558e-17 1.000000e-01
-3.141446e-01 0.000000e+00 1.000000e-01
-5.207489e-01 -2.775558e-17 1.000000e-01
-7.273532e-01 0.000000e+00 1.000000e-01
-9.339574e-01 0.000000e+00 1.000000e-01
-1.140562e+00 -2.775558e-17 1.000000e-01
-1.075404e-01 0.000000e+00 -1.000000e-01
-3.141446e-01 0.000000e+00 -1.000000e-01
-5.207489e-01 -2.775558e-17 -1.000000e-01
-7.273532e-01 0.000000e+00 -1.000000e-01
-9.339574e-01 0.000000e+00 -1.000000e-01
-1.140562e+00 -2.775558e-17 -1.000000e-01
-1.347166e+00 0.000000e+00 -1.000000e-01
-1.075404e-01 -2.775558e-17 -3.000000e-01
-3.141446e-01 0.000000e+00 -3.000000e-01
-5.207489e-01 0.000000e+00 -3.000000e-01
-7.273532e-01 -2.775558e-17 -3.000000e-01
-9.339574e-01 -2.775558e-17 -3.000000e-01
-1.140562e+00 -2.775558e-17 -3.000000e-01
-1.347166e+00 -5.551115e-17 -3.000000e-01
-1.075404e-01 0.000000e+00 -5.000000e-01
-3.141446e-01 0.000000e+00 -5.000000e-01
-5.207489e-01 0.000000e+00 -5.000000e-01
-7.273532e-01 0.000000e+00 -5.000000e-01
-9.339574e-01 0.000000e+00 -5.000000e-01
-1.140562e+00 0.000000e+00 -5.000000e-01
-1.347166e+00 -5.551115e-17 -5.000000e-01
1.320852e-01 -3.333333e-01 5.000000e-01
1.320852e-01 -3.333333e-01 3.000000e-01
-7.672048e-02 -3.333333e-01 5.000000e-01
-7.672048e-02 -3.333333e-01 3.000000e-01
-2.855262e-01 -3.333333e-01 5.000000e-01
-2.855262e-01 -3.333333e-01 3.000000e-01
-4.943318e-01 -3.333333e-01 5.000000e-01
-4.943318e-01 -3.333333e-01 3.000000e-01
-7.031375e-01 -3.333333e-01 5.000000e-01
-7.031375e-01 -3.333333e-01 3.000000e-01
-9.119432e-01 -3.333333e-01 5.000000e-01
-9.119432e-01 -3.333333e-01 3.000000e-01
-7.672048e-02 -3.333333e-01 1.000000e-01
-2.855262e-01 -3.333333e-01 1.000000e-01
-4.943318e-01 -3.333333e-01 1.000000e-01
-7.031375e-01 -3.333333e-01 1.000000e-01
-9.119432e-01 -3.333333e-01 1.000000e-01
-7.672048e-02 -3.333333e-01 -1.000000e-01
-2.855262e-01 -3.333333e-01 -1.000000e-01
-4.943318e-01 -3.333333e-01 -1.000000e-01
-7.031375e-01 -3.333333e-01 -1.000000e-01
-9.119432e-01 -3.333333e-01 -1.000000e-01
-1.120749e+00 -3.333333e-01 -1.000000e-01
-1.329555e+00 -3.333333e-01 -1.000000e-01
-7.672048e-02 -3.333333e-01 -3.000000e-01
-2.855262e-01 -3.333333e-01 -3.000000e-01
-4.943318e-01 -3.333333e-01 -3.000000e-01
-7.031375e-01 -3.333333e-01 -3.000000e-01
-9.119432e-01 -3.333333e-01 -3.000000e-01
-1.120749e+00 -3.333333e-01 -3.000000e-01
-1.329555e+00 -3.333333e-01 -3.000000e-01
-7.672048e-02 -3.333333e-01 -5.000000e-01
-2.855262e-01 -3.333333e-01 -5.000000e-01
-4.943318e-01 -3.333333e-01 -5.000000e-01
-7.031375e-01 -3.333333e-01 -5.000000e-01
-9.119432e-01 -3.333333e-01 -5.000000e-01
-1.120749e+00 -3.333333e-01 -5.000000e-01
-1.329555e+00 -3.333333e-01 -5.000000e-01
1.651065e-01 -6.666667e-01 5.000000e-01
1.651065e-01 -6.666667e-01 3.000000e-01
-4.590059e-02 -6.666667e-01 5.000000e-01
-4.590059e-02 -6.666667e-01 3.000000e-01
-2.569077e-01 -6.666667e-01 5.000000e-01
-2.569077e-01 -6.666667e-01 3.000000e-01
-4.679148e-01 -6.666667e-01 5.000000e-01
-4.679148e-01 -6.666667e-01 3.000000e-01
-6.789219e-01 -6.666667e-01 5.000000e-01
-6.789219e-01 -6.666667e-01 3.000000e-01
-8.899290e-01 -6.666667e-01 5.000000e-01
-8.899290e-01 -6.666667e-01 3.000000e-01
-4.590059e-02 -6.666667e-01 1.000000e-01
-2.569077e-01 -6.666667e-01 1.000000e-01
-4.679148e-01 -6.666667e-01 1.000000e-01
-6.789219e-01 -6.666667e-01 1.000000e-01
-8.899290e-01 -6.666667e-01 1.000000e-01
-4.590059e-02 -6.666667e-01 -1.000000e-01
-2.569077e-01 -6.666667e-01 -1.000000e-01
-4.679148e-01 -6.666667e-01 -1.000000e-01
-6.789219e-01 -6.666667e-01 -1.000000e-01
-8.899290e-01 -6.666667e-01 -1.000000e-01
-1.100936e+00 -6.666667e-01 -1.000000e-01
-1.311943e+00 -6.666667e-01 -1.000000e-01
-4.590059e-02 -6.666667e-01 -3.000000e-01
-2.569077e-01 -6.666667e-01 -3.000000e-01
-4.679148e-01 -6.666667e-01 -3.000000e-01
-6.789219e-01 -6.666667e-01 -3.000000e-01
-8.899290e-01 -6.666667e-01 -3.000000e-01
-1.100936e+00 -6.666667e-01 -3.000000e-01
-1.311943e+00 -6.666667e-01 -3.000000e-01
-4.590059e-02 -6.666667e-01 -5.000000e-01
-2.569077e-01 -6.666667e-01 -5.000000e-01
-4.679148e-01 -6.666667e-01 -5.000000e-01
-6.789219e-01 -6.666667e-01 -5.000000e-01
-8.899290e-01 -6.666667e-01 -5.000000e-01
-1.100936e+00 -6.666667e-01 -5.000000e-01
-1.311943e+00 -6.666667e-01 -5.000000e-01
1.981278e-01 -1.000000e+00 5.000000e-01
1.981278e-01 -1.000000e+00 3.000000e-01
[...]
CELL_DATA 900
SCALARS Density double 1
LOOKUP_TABLE default
1.000000e+00
1.000000e+00
1.000000e+00
1.000000e+00
1.000000e+00
1.000000e+00
1.000000e+00
1.000000e+00
1.000000e+00
1.000000e+00
1.000000e+00
1.000000e+00
1.000000e+00
1.000000e+00
1.000000e+00
1.000000e+00
1.000000e+00
1.000000e+00
1.000000e+00
1.000000e+00
1.000000e+00
1.000000e+00
1.000000e+00
1.000001e+00
1.000000e+00
1.000000e+00
1.000000e+00
1.000000e+00
1.000000e+00
1.000000e+00
1.000000e+00
1.000001e+00
1.000000e+00
1.000000e+00
1.000000e+00
1.000000e+00
1.000000e+00
1.000000e+00
1.000000e+00
1.000001e+00
1.000000e+00
1.000000e+00
1.000000e+00
1.000000e+00
1.000000e+00
1.000000e+00
1.000000e+00
1.000000e+00
1.000000e+00
1.000000e+00
1.000000e+00
1.000000e+00
1.000000e+00
1.000000e+00
1.000000e+00
1.000000e+00
1.000000e+00
1.000000e+00
1.000000e+00
1.000000e+00
1.000000e+00
1.000000e+00
1.000000e+00
1.000001e+00
1.000000e+00
1.000000e+00
1.000000e+00
1.000000e+00
1.000000e+00
1.000000e+00
1.000000e+00
1.000001e+00
1.000000e+00
1.000000e+00
1.000000e+00
1.000000e+00
1.000000e+00
1.000000e+00
1.000000e+00
1.000001e+00
1.000000e+00
1.000000e+00
1.000000e+00
1.000000e+00
1.000000e+00
1.000000e+00
1.000000e+00
1.000000e+00
1.000000e+00
1.000000e+00
1.000000e+00
1.000000e+00
1.000000e+00
1.000000e+00
1.000000e+00
1.000000e+00
1.000000e+00
1.000000e+00
1.000000e+00
1.000000e+00
1.000000e+00
1.000000e+00
1.000000e+00
1.000001e+00
1.000000e+00
1.000000e+00
1.000000e+00
1.000000e+00
1.000000e+00
1.000000e+00
1.000000e+00
1.000001e+00
1.000000e+00
1.000000e+00
1.000000e+00
1.000000e+00
1.000000e+00
1.000000e+00
1.000000e+00
1.000001e+00
1.000000e+00
1.000000e+00
1.000000e+00
1.000000e+00
1.000000e+00
1.000000e+00
1.000000e+00
1.000000e+00
1.000000e+00
1.000000e+00
1.000000e+00
1.000000e+00
1.000000e+00
1.000000e+00
1.000000e+00
1.000000e+00
1.000000e+00
1.000000e+00
1.000000e+00
1.000000e+00
1.000000e+00
1.000000e+00
1.000000e+00
1.000001e+00
1.000000e+00
1.000000e+00
1.000000e+00
1.000000e+00
1.000000e+00
1.000000e+00
1.000000e+00
1.000001e+00
1.000000e+00
1.000000e+00
1.000000e+00
1.000000e+00
1.000000e+00
1.000000e+00
1.000000e+00
1.000001e+00
1.000000e+00
1.000000e+00
1.000000e+00
1.000000e+00
1.000000e+00
1.000000e+00
1.000000e+00
1.000000e+00
1.000000e+00
1.000000e+00
1.000000e+00
1.000000e+00
1.000000e+00
1.000000e+00
1.000000e+00
1.000000e+00
1.000000e+00
1.000000e+00
1.000000e+00
1.000000e+00
1.000000e+00
1.000001e+00
1.000000e+00
1.000000e+00
1.000000e+00
1.000000e+00
1.000000e+00
1.000000e+00
1.000000e+00
1.000001e+00
1.000000e+00
1.000000e+00
1.000000e+00
1.000000e+00
1.000000e+00
1.000000e+00
1.000000e+00
1.000001e+00
1.000000e+00
1.000000e+00
1.000000e+00
1.000000e+00
1.000000e+00
1.000000e+00
1.000000e+00
1.000000e+00
1.000000e+00
1.000000e+00
1.000000e+00
1.000000e+00
1.000000e+00
1.000000e+00
1.000000e+00
1.000000e+00
1.000000e+00
1.000000e+00
1.000000e+00
1.000000e+00
1.000000e+00
1.000000e+00
1.000000e+00
1.000000e+00
1.000000e+00
1.000000e+00
1.000000e+00
1.000000e+00
1.000000e+00
1.000000e+00
1.000000e+00
1.000000e+00
1.000000e+00
1.000000e+00
1.000000e+00
1.000000e+00
1.000000e+00
1.000000e+00
1.000001e+00
1.000007e+00
1.000055e+00
1.000416e+00
1.002431e+00
1.012539e+00
1.045179e+00
1.111251e+00
1.000001e+00
1.000007e+00
1.000060e+00
1.000454e+00
1.002641e+00
1.013540e+00
1.048292e+00
1.116019e+00
1.000007e+00
1.000060e+00
1.000456e+00
1.002653e+00
1.013597e+00
1.048467e+00
1.116255e+00
1.000007e+00
1.000060e+00
1.000454e+00
1.002641e+00
1.013540e+00
1.048292e+00
1.116019e+00
1.000007e+00
1.000055e+00
1.000416e+00
1.002431e+00
1.012539e+00
1.045179e+00
1.111251e+00
1.000001e+00
1.000007e+00
1.000054e+00
1.000417e+00
1.002457e+00
1.012788e+00
1.046253e+00
1.113657e+00
1.000001e+00
1.000007e+00
1.000059e+00
1.000455e+00
1.002670e+00
1.013812e+00
1.049457e+00
1.118586e+00
1.000007e+00
1.000060e+00
1.000457e+00
1.002683e+00
1.013871e+00
1.049638e+00
1.118832e+00
1.000007e+00
1.000059e+00
1.000455e+00
1.002670e+00
1.013812e+00
1.049457e+00
1.118586e+00
1.000007e+00
1.000054e+00
1.000417e+00
1.002457e+00
1.012788e+00
1.046253e+00
1.113657e+00
1.000001e+00
1.000006e+00
1.000051e+00
1.000397e+00
1.002361e+00
1.012433e+00
1.045405e+00
1.113022e+00
1.000001e+00
1.000007e+00
1.000056e+00
1.000433e+00
1.002566e+00
1.013429e+00
1.048554e+00
1.117937e+00
1.000007e+00
1.000056e+00
1.000435e+00
1.002578e+00
1.013486e+00
1.048731e+00
1.118183e+00
1.000007e+00
1.000056e+00
1.000433e+00
1.002566e+00
1.013429e+00
1.048554e+00
1.117937e+00
1.000006e+00
1.000051e+00
1.000397e+00
1.002361e+00
1.012433e+00
1.045405e+00
1.113022e+00
1.000001e+00
1.000006e+00
1.000048e+00
1.000377e+00
1.002264e+00
1.012065e+00
1.044490e+00
1.112248e+00
1.000001e+00
1.000006e+00
1.000052e+00
1.000411e+00
1.002461e+00
1.013031e+00
1.047577e+00
1.117138e+00
1.000006e+00
1.000053e+00
1.000413e+00
1.002472e+00
1.013087e+00
1.047752e+00
1.117385e+00
1.000006e+00
1.000052e+00
1.000411e+00
1.002461e+00
1.013031e+00
1.047577e+00
1.117138e+00
1.000006e+00
1.000048e+00
1.000377e+00
1.002264e+00
1.012065e+00
1.044490e+00
1.112248e+00
1.000000e+00
1.000001e+00
1.000005e+00
1.000045e+00
1.000357e+00
1.002167e+00
1.011684e+00
1.043509e+00
1.111331e+00
1.000000e+00
1.000001e+00
1.000006e+00
1.000049e+00
1.000390e+00
1.002355e+00
1.012620e+00
1.046529e+00
1.116188e+00
1.000006e+00
1.000049e+00
1.000391e+00
1.002366e+00
1.012674e+00
1.046700e+00
1.116434e+00
1.000006e+00
1.000049e+00
1.000390e+00
1.002355e+00
1.012620e+00
1.046529e+00
1.116188e+00
1.000005e+00
1.000045e+00
1.000357e+00
1.002167e+00
1.011684e+00
1.043509e+00
1.111331e+00
1.000000e+00
1.000000e+00
1.000005e+00
1.000040e+00
1.000321e+00
1.001969e+00
1.010786e+00
1.040800e+00
1.107509e+00
1.000000e+00
1.000000e+00
1.000005e+00
1.000044e+00
1.000350e+00
1.002139e+00
1.011646e+00
1.043622e+00
1.112162e+00
1.000005e+00
1.000044e+00
1.000352e+00
1.002149e+00
1.011696e+00
1.043782e+00
1.112399e+00
1.000005e+00
1.000044e+00
1.000350e+00
1.002139e+00
1.011646e+00
1.043622e+00
1.112162e+00
1.000005e+00
1.000040e+00
1.000321e+00
1.001969e+00
1.010786e+00
1.040800e+00
1.107509e+00
1.000000e+00
1.000000e+00
1.000000e+00
1.000000e+00
1.000000e+00
1.000000e+00
1.000000e+00
1.000000e+00
1.000000e+00
1.000000e+00
1.000000e+00
1.000000e+00
1.000000e+00
1.000000e+00
1.000000e+00
1.000000e+00
1.000000e+00
1.000000e+00
1.000000e+00
1.000000e+00
1.000000e+00
1.000000e+00
1.000000e+00
1.000000e+00
1.000000e+00
1.000000e+00
1.000000e+00
1.000000e+00
1.000000e+00
1.000000e+00
1.000000e+00
1.000000e+00
1.000000e+00
1.000000e+00
1.000000e+00
1.000000e+00
1.000000e+00
1.000000e+00
1.000000e+00
1.000000e+00
1.000000e+00
1.000000e+00
1.000000e+00
1.000000e+00
1.000000e+00
1.000000e+00
1.000000e+00
1.000000e+00
1.000000e+00
1.000000e+00
1.000000e+00
1.000000e+00
1.000000e+00
1.000000e+00
1.000000e+00
1.000000e+00
1.000000e+00
1.000000e+00
1.000000e+00
1.000000e+00
1.000000e+00
1.000000e+00
1.000000e+00
1.000000e+00
1.000000e+00
1.000000e+00
1.000000e+00
1.000000e+00
1.000000e+00
1.000000e+00
1.000000e+00
1.000000e+00
1.000000e+00
1.000000e+00
1.000000e+00
1.000000e+00
1.000000e+00
1.000000e+00
1.000000e+00
1.000000e+00
1.000000e+00
1.000000e+00
1.000000e+00
1.000000e+00
1.000000e+00
1.000000e+00
1.000000e+00
1.000000e+00
1.000000e+00
1.000000e+00
1.000000e+00
1.000000e+00
1.000000e+00
1.000000e+00
1.000000e+00
1.000000e+00
1.000000e+00
1.000000e+00
1.000000e+00
1.000000e+00
1.000000e+00
1.000000e+00
1.000000e+00
1.000000e+00
1.000000e+00
1.000000e+00
1.000000e+00
1.000000e+00
1.000000e+00
1.000000e+00
1.000000e+00
1.000000e+00
1.000000e+00
1.000000e+00
1.000000e+00
1.000000e+00
1.000000e+00
1.000000e+00
1.000000e+00
1.000000e+00
1.000000e+00
1.000000e+00
1.000000e+00
1.000000e+00
1.000000e+00
1.000000e+00
1.000000e+00
1.000000e+00
1.000000e+00
1.000000e+00
1.000000e+00
1.000000e+00
1.000000e+00
1.000000e+00
1.000000e+00
1.000000e+00
1.000000e+00
1.000000e+00
1.000000e+00
1.000000e+00
1.000000e+00
1.000000e+00
1.000000e+00
1.000000e+00
1.000000e+00
1.000000e+00
1.000000e+00
1.000000e+00
1.000000e+00
1.000000e+00
1.000000e+00
1.000000e+00
1.000000e+00
1.000000e+00
1.000000e+00
1.000000e+00
1.000000e+00
1.000000e+00
1.000000e+00
1.000000e+00
1.000000e+00
1.000000e+00
1.000000e+00
1.000000e+00
1.000000e+00
1.000000e+00
1.000000e+00
1.000000e+00
1.000000e+00
1.000000e+00
1.000000e+00
1.000000e+00
1.000000e+00
1.000000e+00
1.000000e+00
1.000000e+00
1.000000e+00
1.000000e+00
1.000000e+00
1.000000e+00
1.000000e+00
1.000000e+00
1.000000e+00
1.000000e+00
1.000000e+00
1.000000e+00
1.000000e+00
1.000000e+00
1.000000e+00
1.000000e+00
1.000000e+00
1.000000e+00
1.000000e+00
1.000000e+00
1.000000e+00
1.000000e+00
1.000000e+00
1.000000e+00
1.000000e+00
1.000000e+00
1.000000e+00
1.000000e+00
1.000000e+00
1.000000e+00
1.000000e+00
1.000000e+00
1.000000e+00
1.000000e+00
1.000000e+00
1.000000e+00
1.000000e+00
1.000000e+00
1.000000e+00
1.000000e+00
1.000000e+00
1.000000e+00
1.000000e+00
1.000000e+00
1.000000e+00
1.000000e+00
1.000000e+00
1.000000e+00
1.000000e+00
1.000000e+00
1.000000e+00
1.000000e+00
1.000000e+00
1.000000e+00
1.000000e+00
1.000000e+00
1.000000e+00
1.000000e+00
1.000000e+00
1.000000e+00
1.000000e+00
1.000000e+00
1.000000e+00
1.000000e+00
1.000000e+00
1.000000e+00
1.000000e+00
1.000000e+00
1.000000e+00
1.000000e+00
1.000000e+00
1.000000e+00
1.000000e+00
1.000000e+00
1.000000e+00
1.000000e+00
1.000000e+00
1.000000e+00
1.000000e+00
1.000000e+00
1.000000e+00
1.000000e+00
1.000000e+00
1.000000e+00
1.000000e+00
1.000000e+00
1.000000e+00
1.000000e+00
1.000000e+00
1.000000e+00
1.000000e+00
1.000000e+00
1.000000e+00
1.000000e+00
1.000000e+00
1.000000e+00
1.000000e+00
1.000000e+00
1.000000e+00
1.000000e+00
1.000000e+00
1.000000e+00
1.000000e+00
1.000000e+00
1.000000e+00
1.000000e+00
1.000000e+00
1.000000e+00
1.000000e+00
1.000000e+00
1.000000e+00
1.000000e+00
1.000000e+00
1.000000e+00
1.000000e+00
1.000000e+00
1.000000e+00
1.000000e+00
1.000000e+00
1.000000e+00
1.000000e+00
1.000000e+00
1.000000e+00
1.000000e+00
1.000000e+00
1.000000e+00
1.000000e+00
1.000000e+00
1.000000e+00
1.000000e+00
1.000000e+00
1.000000e+00
1.000000e+00
1.000000e+00
1.000000e+00
1.000000e+00
1.000000e+00
1.000000e+00
1.000000e+00
1.000000e+00
1.000000e+00
1.000000e+00
1.000000e+00
1.000000e+00
1.000000e+00
1.000000e+00
1.000000e+00
1.000000e+00
1.000000e+00
1.000000e+00
1.000000e+00
1.000000e+00
1.000000e+00
1.000000e+00
1.000000e+00
1.000000e+00
1.000000e+00
1.000000e+00
1.000000e+00
1.000000e+00
1.000000e+00
1.000000e+00
1.000000e+00
1.000000e+00
1.000000e+00
1.000000e+00
1.000000e+00
1.000000e+00
1.000000e+00
1.000000e+00
1.000000e+00
1.000000e+00
1.000000e+00
1.000000e+00
1.000000e+00
1.000000e+00
1.000000e+00
1.000000e+00
1.000000e+00
1.000000e+00
1.000000e+00
1.000000e+00
1.000000e+00
1.000000e+00
1.000000e+00
1.000000e+00
1.000000e+00
1.000000e+00
1.000000e+00
1.000000e+00
1.000000e+00
1.000000e+00
1.000000e+00
1.000000e+00
1.000000e+00
1.000000e+00
1.000000e+00
1.000000e+00
1.000000e+00
1.000000e+00
1.000000e+00
1.000000e+00
1.000000e+00
1.000000e+00
1.000000e+00
1.000000e+00
1.000000e+00
1.000000e+00
1.000000e+00
1.000000e+00
1.000000e+00
1.000000e+00
1.000000e+00
1.000000e+00
1.000000e+00
1.000000e+00
1.000000e+00
1.000000e+00
1.000000e+00
1.000000e+00
1.000000e+00
1.000000e+00
1.000000e+00
1.000000e+00
1.000000e+00
1.000000e+00
1.000000e+00
1.000000e+00
1.000000e+00
1.000000e+00
1.000000e+00
1.000000e+00
1.000000e+00
1.000000e+00
1.000000e+00
1.000000e+00
1.000000e+00
1.000000e+00
1.000000e+00
1.000000e+00
1.000000e+00
1.000000e+00
1.000000e+00
1.000000e+00
1.000000e+00
1.000000e+00
1.000000e+00
1.000000e+00
1.000000e+00
1.000000e+00
1.000000e+00
1.000000e+00
1.000000e+00
1.000000e+00
1.000000e+00
1.000000e+00
1.000000e+00
1.000000e+00
1.000000e+00
1.000000e+00
1.000000e+00
1.000000e+00
1.000000e+00
1.000000e+00
VECTORS Momentum double
-3.731956e-16 8.565255e-16 -7.227187e-17
2.469214e-14 2.255448e-15 2.198246e-16
4.808338e-13 3.979676e-14 5.675795e-15
8.050009e-12 6.163108e-13 1.032305e-13
1.263019e-10 8.890191e-12 1.699539e-12
1.799510e-09 1.154321e-10 2.635818e-11
2.402674e-08 1.397417e-09 3.702680e-10
2.834756e-07 1.476144e-08 4.862636e-09
4.365521e-16 5.313465e-17 4.962277e-18
2.740124e-14 2.474119e-15 6.700473e-17
5.303842e-13 4.393610e-14 2.669761e-15
8.869207e-12 6.782556e-13 4.826993e-14
1.390854e-10 9.788880e-12 8.022866e-13
1.980479e-09 1.270382e-10 1.241937e-11
2.642398e-08 1.536802e-09 1.742750e-10
3.114932e-07 1.622012e-08 2.285759e-09
2.753827e-14 2.462614e-15 1.343637e-17
5.326746e-13 4.407004e-14 -2.210516e-20
8.916099e-12 6.824153e-13 6.235835e-28
1.398044e-10 9.838186e-12 1.104277e-25
1.990642e-09 1.276887e-10 -3.696096e-26
2.655866e-08 1.544640e-09 2.286441e-24
3.130681e-07 1.630220e-08 5.116698e-22
3.454559e-06 1.600468e-07 3.914382e-20
2.740428e-14 2.482393e-15 -1.117993e-16
5.303839e-13 4.393652e-14 -2.670746e-15
8.869207e-12 6.782557e-13 -4.826993e-14
1.390854e-10 9.788882e-12 -8.022865e-13
1.980479e-09 1.270382e-10 -1.241937e-11
2.642398e-08 1.536802e-09 -1.742750e-10
3.114932e-07 1.622012e-08 -2.285759e-09
3.437382e-06 1.592498e-07 -2.636662e-08
2.474505e-14 2.210148e-15 -2.041168e-16
4.808336e-13 3.979166e-14 -5.675946e-15
8.050009e-12 6.163130e-13 -1.032311e-13
1.263019e-10 8.890190e-12 -1.699539e-12
1.799510e-09 1.154321e-10 -2.635818e-11
2.402674e-08 1.397417e-09 -3.702680e-10
2.834756e-07 1.476144e-08 -4.862636e-09
3.131518e-06 1.450794e-07 -5.618507e-08
-8.683102e-15 6.216633e-14 -2.691486e-15
2.070104e-14 4.061611e-15 6.189913e-17
4.388349e-13 3.571395e-14 5.218526e-15
7.428689e-12 5.467874e-13 9.400310e-14
1.178480e-10 7.935026e-12 1.583960e-12
1.697160e-09 1.032497e-10 2.486349e-11
2.291160e-08 1.253136e-09 3.530176e-10
2.731442e-07 1.316549e-08 4.687722e-09
4.335733e-16 1.125134e-15 -1.518244e-15
2.455657e-14 2.201006e-15 2.278934e-17
4.834090e-13 3.868311e-14 2.411812e-15
8.184073e-12 6.019896e-13 4.436388e-14
1.297801e-10 8.738223e-12 7.466722e-13
1.867887e-09 1.136282e-10 1.171449e-11
2.519841e-08 1.378093e-09 1.661658e-10
3.001534e-07 1.446572e-08 2.203691e-09
2.459872e-14 2.177005e-15 -6.280577e-18
4.859726e-13 3.894922e-14 -8.855526e-20
8.226361e-12 6.056332e-13 -4.404147e-20
1.304496e-10 8.782728e-12 -2.672733e-25
1.877479e-09 1.142114e-10 -1.896645e-23
2.532694e-08 1.385120e-09 -8.743721e-22
3.016723e-07 1.453890e-08 -1.989433e-20
3.365318e-06 1.422317e-07 4.103822e-20
2.482325e-14 1.945544e-15 -1.343617e-16
4.834144e-13 3.864897e-14 -2.423700e-15
8.184077e-12 6.019873e-13 -4.436428e-14
1.297801e-10 8.738223e-12 -7.466725e-13
1.867887e-09 1.136282e-10 -1.171449e-11
2.519841e-08 1.378093e-09 -1.661658e-10
3.001534e-07 1.446572e-08 -2.203691e-09
3.348567e-06 1.415239e-07 -2.568713e-08
2.382017e-14 7.914994e-19 -2.587617e-16
4.389286e-13 3.461752e-14 -5.240189e-15
7.428700e-12 5.467566e-13 -9.400387e-14
1.178480e-10 7.935026e-12 -1.583960e-12
1.697160e-09 1.032497e-10 -2.486349e-11
2.291160e-08 1.253136e-09 -3.530176e-10
2.731442e-07 1.316549e-08 -4.687722e-09
3.050438e-06 1.289417e-07 -5.473220e-08
-2.320523e-13 -8.587933e-14 -2.044357e-13
-8.272996e-14 -9.314930e-15 -7.135025e-15
3.749042e-13 2.885819e-14 2.475765e-15
6.483676e-12 4.639962e-13 8.200603e-14
1.039926e-10 6.780191e-12 1.399682e-12
1.513731e-09 8.857920e-11 2.217374e-11
2.065815e-08 1.079669e-09 3.182350e-10
2.489078e-07 1.132100e-08 4.271821e-09
5.628818e-14 2.354171e-15 -1.097191e-13
1.889927e-14 1.640443e-15 -3.806069e-15
4.169821e-13 3.257605e-14 1.152090e-15
7.145075e-12 5.114381e-13 3.908400e-14
1.145208e-10 7.466880e-12 6.600201e-13
1.666002e-09 9.747924e-11 1.044797e-11
2.271998e-08 1.187254e-09 1.497924e-10
2.735194e-07 1.243790e-08 2.008169e-09
2.130733e-14 1.918080e-15 -4.469580e-16
4.195578e-13 3.287882e-14 -5.024494e-17
7.182092e-12 5.145103e-13 -3.480989e-19
1.151121e-10 7.505483e-12 -5.769731e-19
1.674556e-09 9.797940e-11 -4.900124e-19
2.283587e-08 1.193303e-09 -5.344987e-19
2.749035e-07 1.250073e-08 -1.014883e-18
3.100267e-06 1.222557e-07 6.355334e-19
4.094339e-14 4.059541e-15 -3.756037e-15
4.174128e-13 3.269977e-14 -3.037108e-15
7.145115e-12 5.114480e-13 -3.913825e-14
1.145208e-10 7.466880e-12 -6.600295e-13
1.666002e-09 9.747923e-11 -1.044798e-11
2.271998e-08 1.187254e-09 -1.497924e-10
2.735194e-07 1.243790e-08 -2.008169e-09
3.084835e-06 1.216487e-07 -2.365689e-08
1.231958e-13 1.355953e-14 -6.427622e-15
3.818959e-13 3.044075e-14 -6.016698e-15
6.485473e-12 4.642302e-13 -8.210607e-14
1.039927e-10 6.780196e-12 -1.399659e-12
1.513731e-09 8.857920e-11 -2.217374e-11
2.065815e-08 1.079669e-09 -3.182350e-10
2.489078e-07 1.132100e-08 -4.271821e-09
2.810200e-06 1.108493e-07 -5.040659e-08
2.169882e-13 -4.174400e-14 1.913844e-13
1.135381e-13 8.634065e-15 3.965944e-15
3.283556e-13 2.521421e-14 5.086713e-15
5.657540e-12 4.047151e-13 7.170752e-14
9.170703e-11 5.973304e-12 1.234704e-12
1.349089e-09 7.882387e-11 1.976433e-11
1.860880e-08 9.706388e-10 2.866186e-10
2.265777e-07 1.027571e-08 3.888660e-09
-5.023232e-14 -6.309111e-15 1.066311e-13
2.291354e-14 2.080107e-15 2.181880e-15
3.598424e-13 2.819429e-14 2.568729e-15
6.233383e-12 4.460143e-13 3.457446e-14
1.009924e-10 6.576925e-12 5.822315e-13
1.484790e-09 8.674322e-11 9.312045e-12
2.046599e-08 1.067348e-09 1.349107e-10
2.489797e-07 1.128930e-08 1.828029e-09
1.733218e-14 1.589566e-15 4.755428e-16
3.622700e-13 2.835272e-14 1.357853e-16
6.265572e-12 4.482055e-13 1.954110e-18
1.015127e-10 6.610746e-12 3.388917e-19
1.492415e-09 8.718784e-11 4.060148e-19
2.057037e-08 1.072785e-09 4.960421e-19
2.502395e-07 1.134632e-08 -2.466708e-19
2.852537e-06 1.120632e-07 -3.841254e-19
2.352017e-15 3.768100e-16 3.054638e-15
3.593842e-13 2.818236e-14 -1.014275e-15
6.233261e-12 4.460026e-13 -3.443223e-14
1.009924e-10 6.576924e-12 -5.822223e-13
1.484790e-09 8.674322e-11 -9.312036e-12
2.046599e-08 1.067348e-09 -1.349107e-10
2.489797e-07 1.128930e-08 -1.828029e-09
2.838340e-06 1.115071e-07 -2.176056e-08
-8.046138e-14 -5.679522e-15 5.105864e-15
3.237126e-13 2.588424e-14 -2.359113e-15
5.656076e-12 4.046202e-13 -7.143477e-14
9.170687e-11 5.973292e-12 -1.234723e-12
1.349089e-09 7.882387e-11 -1.976434e-11
1.860880e-08 9.706388e-10 -2.866186e-10
2.265777e-07 1.027571e-08 -3.888660e-09
2.585672e-06 1.016103e-07 -4.636658e-08
6.972867e-15 6.200543e-14 2.674560e-15
1.465258e-14 2.548344e-15 1.038039e-16
2.812282e-13 2.204133e-14 3.128531e-15
4.930217e-12 3.438898e-13 6.261011e-14
8.076392e-11 5.107863e-12 1.084806e-12
1.200647e-09 6.765316e-11 1.758713e-11
1.673807e-08 8.360820e-10 2.577398e-10
-2.877629e-16 3.426525e-15 1.527957e-15
1.470800e-14 1.391686e-15 5.841585e-17
3.100336e-13 2.380710e-14 1.494169e-15
5.431486e-12 3.790154e-13 2.977232e-14
8.894040e-11 5.623870e-12 5.114100e-13
1.321409e-09 7.444581e-11 8.286185e-12
1.840841e-08 9.193232e-10 1.213159e-10
1.470356e-14 1.335065e-15 5.158737e-18
3.118132e-13 2.390453e-14 3.542343e-19
5.459566e-12 3.805146e-13 -3.791214e-28
8.939906e-11 5.652934e-12 2.056521e-26
1.328194e-09 7.482810e-11 2.012568e-24
1.850229e-08 9.240021e-10 6.495737e-23
2.274349e-07 9.747926e-09 1.641254e-21
2.620416e-06 9.608296e-08 1.908002e-20
1.449821e-14 1.086918e-15 3.231975e-17
3.100262e-13 2.372480e-14 -1.484505e-15
5.431486e-12 3.790143e-13 -2.977151e-14
8.894040e-11 5.623870e-12 -5.114097e-13
1.321409e-09 7.444581e-11 -8.286185e-12
1.840841e-08 9.193232e-10 -1.213159e-10
2.262901e-07 9.699009e-09 -1.661317e-09
2.607376e-06 9.560724e-08 -1.998165e-08
1.201177e-14 -6.550767e-16 5.655177e-17
2.811492e-13 2.112205e-14 -3.111701e-15
4.930208e-12 3.438039e-13 -6.260858e-14
8.076392e-11 5.107861e-12 -1.084806e-12
1.200647e-09 6.765316e-11 -1.758713e-11
1.673807e-08 8.360820e-10 -2.577398e-10
2.059317e-07 8.829136e-09 -3.534074e-09
2.375300e-06 8.713581e-08 -4.257699e-08
7.608358e-16 9.828938e-16 4.610493e-17
1.034814e-14 9.793048e-16 1.521400e-17
2.278656e-13 1.649986e-14 2.505266e-15
4.045790e-12 2.639766e-13 5.171764e-14
6.702249e-11 3.931184e-12 9.000919e-13
1.007247e-09 5.190173e-11 1.474032e-11
1.420188e-08 6.397348e-10 2.183632e-10
6.263878e-17 3.218814e-17 2.669317e-17
1.145050e-14 1.044751e-15 7.280997e-18