# vtk DataFile Version 2.0
Simplicial Mesh Example
ASCII
DATASET UNSTRUCTURED_GRID
POINTS 1302 double
0.000000e+00 1.000000e+00 5.000000e-01
-5.551115e-17 1.000000e+00 3.000000e-01
3.302130e-02 6.666667e-01 5.000000e-01
3.302130e-02 6.666667e-01 3.000000e-01
-2.000000e-01 1.000000e+00 5.000000e-01
-2.000000e-01 1.000000e+00 3.000000e-01
-1.691801e-01 6.666667e-01 5.000000e-01
-1.691801e-01 6.666667e-01 3.000000e-01
-4.000000e-01 1.000000e+00 5.000000e-01
-4.000000e-01 1.000000e+00 3.000000e-01
-3.713816e-01 6.666667e-01 5.000000e-01
-3.713816e-01 6.666667e-01 3.000000e-01
-6.000000e-01 1.000000e+00 5.000000e-01
-6.000000e-01 1.000000e+00 3.000000e-01
-5.735829e-01 6.666667e-01 5.000000e-01
-5.735829e-01 6.666667e-01 3.000000e-01
-8.000000e-01 1.000000e+00 5.000000e-01
-8.000000e-01 1.000000e+00 3.000000e-01
-7.757844e-01 6.666667e-01 5.000000e-01
-7.757844e-01 6.666667e-01 3.000000e-01
-1.000000e+00 1.000000e+00 5.000000e-01
-1.000000e+00 1.000000e+00 3.000000e-01
-9.779858e-01 6.666667e-01 5.000000e-01
-9.779858e-01 6.666667e-01 3.000000e-01
-1.200000e+00 1.000000e+00 5.000000e-01
-1.200000e+00 1.000000e+00 3.000000e-01
-1.180187e+00 6.666667e-01 5.000000e-01
-1.180187e+00 6.666667e-01 3.000000e-01
-2.000000e-01 1.000000e+00 1.000000e-01
-1.691801e-01 6.666667e-01 1.000000e-01
-4.000000e-01 1.000000e+00 1.000000e-01
-3.713816e-01 6.666667e-01 1.000000e-01
-6.000000e-01 1.000000e+00 1.000000e-01
-5.735829e-01 6.666667e-01 1.000000e-01
-8.000000e-01 1.000000e+00 1.000000e-01
-7.757844e-01 6.666667e-01 1.000000e-01
-1.000000e+00 1.000000e+00 1.000000e-01
-9.779858e-01 6.666667e-01 1.000000e-01
-1.200000e+00 1.000000e+00 1.000000e-01
-1.180187e+00 6.666667e-01 1.000000e-01
-2.000000e-01 1.000000e+00 -1.000000e-01
-1.691801e-01 6.666667e-01 -1.000000e-01
-4.000000e-01 1.000000e+00 -1.000000e-01
-3.713816e-01 6.666667e-01 -1.000000e-01
-6.000000e-01 1.000000e+00 -1.000000e-01
-5.735829e-01 6.666667e-01 -1.000000e-01
-8.000000e-01 1.000000e+00 -1.000000e-01
-7.757844e-01 6.666667e-01 -1.000000e-01
-1.000000e+00 1.000000e+00 -1.000000e-01
-9.779858e-01 6.666667e-01 -1.000000e-01
-1.200000e+00 1.000000e+00 -1.000000e-01
-1.180187e+00 6.666667e-01 -1.000000e-01
-1.400000e+00 1.000000e+00 -1.000000e-01
-1.382389e+00 6.666667e-01 -1.000000e-01
-2.000000e-01 1.000000e+00 -3.000000e-01
-1.691801e-01 6.666667e-01 -3.000000e-01
-4.000000e-01 1.000000e+00 -3.000000e-01
-3.713816e-01 6.666667e-01 -3.000000e-01
-6.000000e-01 1.000000e+00 -3.000000e-01
-5.735829e-01 6.666667e-01 -3.000000e-01
-8.000000e-01 1.000000e+00 -3.000000e-01
-7.757844e-01 6.666667e-01 -3.000000e-01
-1.000000e+00 1.000000e+00 -3.000000e-01
-9.779858e-01 6.666667e-01 -3.000000e-01
-1.200000e+00 1.000000e+00 -3.000000e-01
-1.180187e+00 6.666667e-01 -3.000000e-01
-1.400000e+00 1.000000e+00 -3.000000e-01
-1.382389e+00 6.666667e-01 -3.000000e-01
-2.000000e-01 1.000000e+00 -5.000000e-01
-1.691801e-01 6.666667e-01 -5.000000e-01
-4.000000e-01 1.000000e+00 -5.000000e-01
-3.713816e-01 6.666667e-01 -5.000000e-01
-6.000000e-01 1.000000e+00 -5.000000e-01
-5.735829e-01 6.666667e-01 -5.000000e-01
-8.000000e-01 1.000000e+00 -5.000000e-01
-7.757844e-01 6.666667e-01 -5.000000e-01
-1.000000e+00 1.000000e+00 -5.000000e-01
-9.779858e-01 6.666667e-01 -5.000000e-01
-1.200000e+00 1.000000e+00 -5.000000e-01
-1.180187e+00 6.666667e-01 -5.000000e-01
-1.400000e+00 1.000000e+00 -5.000000e-01
-1.382389e+00 6.666667e-01 -5.000000e-01
6.604260e-02 3.333333e-01 5.000000e-01
6.604260e-02 3.333333e-01 3.000000e-01
-1.383602e-01 3.333333e-01 5.000000e-01
-1.383602e-01 3.333333e-01 3.000000e-01
-3.427631e-01 3.333333e-01 5.000000e-01
-3.427631e-01 3.333333e-01 3.000000e-01
-5.471659e-01 3.333333e-01 5.000000e-01
-5.471659e-01 3.333333e-01 3.000000e-01
-7.515687e-01 3.333333e-01 5.000000e-01
-7.515687e-01 3.333333e-01 3.000000e-01
-9.559716e-01 3.333333e-01 5.000000e-01
-9.559716e-01 3.333333e-01 3.000000e-01
-1.160374e+00 3.333333e-01 5.000000e-01
-1.160374e+00 3.333333e-01 3.000000e-01
-1.383602e-01 3.333333e-01 1.000000e-01
-3.427631e-01 3.333333e-01 1.000000e-01
-5.471659e-01 3.333333e-01 1.000000e-01
-7.515687e-01 3.333333e-01 1.000000e-01
-9.559716e-01 3.333333e-01 1.000000e-01
-1.160374e+00 3.333333e-01 1.000000e-01
-1.383602e-01 3.333333e-01 -1.000000e-01
-3.427631e-01 3.333333e-01 -1.000000e-01
-5.471659e-01 3.333333e-01 -1.000000e-01
-7.515687e-01 3.333333e-01 -1.000000e-01
-9.559716e-01 3.333333e-01 -1.000000e-01
-1.160374e+00 3.333333e-01 -1.000000e-01
-1.364777e+00 3.333333e-01 -1.000000e-01
-1.383602e-01 3.333333e-01 -3.000000e-01
-3.427631e-01 3.333333e-01 -3.000000e-01
-5.471659e-01 3.333333e-01 -3.000000e-01
-7.515687e-01 3.333333e-01 -3.000000e-01
-9.559716e-01 3.333333e-01 -3.000000e-01
-1.160374e+00 3.333333e-01 -3.000000e-01
-1.364777e+00 3.333333e-01 -3.000000e-01
-1.383602e-01 3.333333e-01 -5.000000e-01
-3.427631e-01 3.333333e-01 -5.000000e-01
-5.471659e-01 3.333333e-01 -5.000000e-01
-7.515687e-01 3.333333e-01 -5.000000e-01
-9.559716e-01 3.333333e-01 -5.000000e-01
-1.160374e+00 3.333333e-01 -5.000000e-01
-1.364777e+00 3.333333e-01 -5.000000e-01
9.906390e-02 -2.775558e-17 5.000000e-01
9.906390e-02 -5.551115e-17 3.000000e-01
-1.075404e-01 0.000000e+00 5.000000e-01
-1.075404e-01 0.000000e+00 3.000000e-01
-3.141446e-01 0.000000e+00 5.000000e-01
-3.141446e-01 0.000000e+00 3.000000e-01
-5.207489e-01 0.000000e+00 5.000000e-01
-5.207489e-01 0.000000e+00 3.000000e-01
-7.273532e-01 -5.551115e-17 5.000000e-01
-7.273532e-01 0.000000e+00 3.000000e-01
-9.339574e-01 0.000000e+00 5.000000e-01
-9.339574e-01 0.000000e+00 3.000000e-01
-1.140562e+00 0.000000e+00 5.000000e-01
-1.140562e+00 0.000000e+00 3.000000e-01
-1.075404e-01 -2.775558e-17 1.000000e-01
-3.141446e-01 0.000000e+00 1.000000e-01
-5.207489e-01 -2.775558e-17 1.000000e-01
-7.273532e-01 0.000000e+00 1.000000e-01
-9.339574e-01 0.000000e+00 1.000000e-01
-1.140562e+00 -2.775558e-17 1.000000e-01
-1.075404e-01 0.000000e+00 -1.000000e-01
-3.141446e-01 0.000000e+00 -1.000000e-01
-5.207489e-01 -2.775558e-17 -1.000000e-01
-7.273532e-01 0.000000e+00 -1.000000e-01
-9.339574e-01 0.000000e+00 -1.000000e-01
-1.140562e+00 -2.775558e-17 -1.000000e-01
-1.347166e+00 0.000000e+00 -1.000000e-01
-1.075404e-01 -2.775558e-17 -3.000000e-01
-3.141446e-01 0.000000e+00 -3.000000e-01
-5.207489e-01 0.000000e+00 -3.000000e-01
-7.273532e-01 -2.775558e-17 -3.000000e-01
-9.339574e-01 -2.775558e-17 -3.000000e-01
-1.140562e+00 -2.775558e-17 -3.000000e-01
-1.347166e+00 -5.551115e-17 -3.000000e-01
-1.075404e-01 0.000000e+00 -5.000000e-01
-3.141446e-01 0.000000e+00 -5.000000e-01
-5.207489e-01 0.000000e+00 -5.000000e-01
-7.273532e-01 0.000000e+00 -5.000000e-01
-9.339574e-01 0.000000e+00 -5.000000e-01
-1.140562e+00 0.000000e+00 -5.000000e-01
-1.347166e+00 -5.551115e-17 -5.000000e-01
1.320852e-01 -3.333333e-01 5.000000e-01
1.320852e-01 -3.333333e-01 3.000000e-01
-7.672048e-02 -3.333333e-01 5.000000e-01
-7.672048e-02 -3.333333e-01 3.000000e-01
-2.855262e-01 -3.333333e-01 5.000000e-01
-2.855262e-01 -3.333333e-01 3.000000e-01
-4.943318e-01 -3.333333e-01 5.000000e-01
-4.943318e-01 -3.333333e-01 3.000000e-01
-7.031375e-01 -3.333333e-01 5.000000e-01
-7.031375e-01 -3.333333e-01 3.000000e-01
-9.119432e-01 -3.333333e-01 5.000000e-01
-9.119432e-01 -3.333333e-01 3.000000e-01
-7.672048e-02 -3.333333e-01 1.000000e-01
-2.855262e-01 -3.333333e-01 1.000000e-01
-4.943318e-01 -3.333333e-01 1.000000e-01
-7.031375e-01 -3.333333e-01 1.000000e-01
-9.119432e-01 -3.333333e-01 1.000000e-01
-7.672048e-02 -3.333333e-01 -1.000000e-01
-2.855262e-01 -3.333333e-01 -1.000000e-01
-4.943318e-01 -3.333333e-01 -1.000000e-01
-7.031375e-01 -3.333333e-01 -1.000000e-01
-9.119432e-01 -3.333333e-01 -1.000000e-01
-1.120749e+00 -3.333333e-01 -1.000000e-01
-1.329555e+00 -3.333333e-01 -1.000000e-01
-7.672048e-02 -3.333333e-01 -3.000000e-01
-2.855262e-01 -3.333333e-01 -3.000000e-01
-4.943318e-01 -3.333333e-01 -3.000000e-01
-7.031375e-01 -3.333333e-01 -3.000000e-01
-9.119432e-01 -3.333333e-01 -3.000000e-01
-1.120749e+00 -3.333333e-01 -3.000000e-01
-1.329555e+00 -3.333333e-01 -3.000000e-01
-7.672048e-02 -3.333333e-01 -5.000000e-01
-2.855262e-01 -3.333333e-01 -5.000000e-01
-4.943318e-01 -3.333333e-01 -5.000000e-01
-7.031375e-01 -3.333333e-01 -5.000000e-01
-9.119432e-01 -3.333333e-01 -5.000000e-01
-1.120749e+00 -3.333333e-01 -5.000000e-01
-1.329555e+00 -3.333333e-01 -5.000000e-01
1.651065e-01 -6.666667e-01 5.000000e-01
1.651065e-01 -6.666667e-01 3.000000e-01
-4.590059e-02 -6.666667e-01 5.000000e-01
-4.590059e-02 -6.666667e-01 3.000000e-01
-2.569077e-01 -6.666667e-01 5.000000e-01
-2.569077e-01 -6.666667e-01 3.000000e-01
-4.679148e-01 -6.666667e-01 5.000000e-01
-4.679148e-01 -6.666667e-01 3.000000e-01
-6.789219e-01 -6.666667e-01 5.000000e-01
-6.789219e-01 -6.666667e-01 3.000000e-01
-8.899290e-01 -6.666667e-01 5.000000e-01
-8.899290e-01 -6.666667e-01 3.000000e-01
-4.590059e-02 -6.666667e-01 1.000000e-01
-2.569077e-01 -6.666667e-01 1.000000e-01
-4.679148e-01 -6.666667e-01 1.000000e-01
-6.789219e-01 -6.666667e-01 1.000000e-01
-8.899290e-01 -6.666667e-01 1.000000e-01
-4.590059e-02 -6.666667e-01 -1.000000e-01
-2.569077e-01 -6.666667e-01 -1.000000e-01
-4.679148e-01 -6.666667e-01 -1.000000e-01
-6.789219e-01 -6.666667e-01 -1.000000e-01
-8.899290e-01 -6.666667e-01 -1.000000e-01
-1.100936e+00 -6.666667e-01 -1.000000e-01
-1.311943e+00 -6.666667e-01 -1.000000e-01
-4.590059e-02 -6.666667e-01 -3.000000e-01
-2.569077e-01 -6.666667e-01 -3.000000e-01
-4.679148e-01 -6.666667e-01 -3.000000e-01
-6.789219e-01 -6.666667e-01 -3.000000e-01
-8.899290e-01 -6.666667e-01 -3.000000e-01
-1.100936e+00 -6.666667e-01 -3.000000e-01
-1.311943e+00 -6.666667e-01 -3.000000e-01
-4.590059e-02 -6.666667e-01 -5.000000e-01
-2.569077e-01 -6.666667e-01 -5.000000e-01
-4.679148e-01 -6.666667e-01 -5.000000e-01
-6.789219e-01 -6.666667e-01 -5.000000e-01
-8.899290e-01 -6.666667e-01 -5.000000e-01
-1.100936e+00 -6.666667e-01 -5.000000e-01
-1.311943e+00 -6.666667e-01 -5.000000e-01
1.981278e-01 -1.000000e+00 5.000000e-01
1.981278e-01 -1.000000e+00 3.000000e-01
[...]
CELL_DATA 900
SCALARS Density double 1
LOOKUP_TABLE default
1.000000e+00
1.000000e+00
1.000000e+00
1.000000e+00
1.000000e+00
1.000000e+00
1.000000e+00
1.000000e+00
1.000000e+00
1.000000e+00
1.000000e+00
1.000000e+00
1.000000e+00
1.000000e+00
1.000000e+00
1.000000e+00
1.000000e+00
1.000000e+00
1.000000e+00
1.000000e+00
1.000000e+00
1.000000e+00
1.000000e+00
1.000000e+00
1.000000e+00
1.000000e+00
1.000000e+00
1.000000e+00
1.000000e+00
1.000000e+00
1.000000e+00
1.000000e+00
1.000000e+00
1.000000e+00
1.000000e+00
1.000000e+00
1.000000e+00
1.000000e+00
1.000000e+00
1.000000e+00
1.000000e+00
1.000000e+00
1.000000e+00
1.000000e+00
1.000000e+00
1.000000e+00
1.000000e+00
1.000000e+00
1.000000e+00
1.000000e+00
1.000000e+00
1.000000e+00
1.000000e+00
1.000000e+00
1.000000e+00
1.000000e+00
1.000000e+00
1.000000e+00
1.000000e+00
1.000000e+00
1.000000e+00
1.000000e+00
1.000000e+00
1.000000e+00
1.000000e+00
1.000000e+00
1.000000e+00
1.000000e+00
1.000000e+00
1.000000e+00
1.000000e+00
1.000000e+00
1.000000e+00
1.000000e+00
1.000000e+00
1.000000e+00
1.000000e+00
1.000000e+00
1.000000e+00
1.000000e+00
1.000000e+00
1.000000e+00
1.000000e+00
1.000000e+00
1.000000e+00
1.000000e+00
1.000000e+00
1.000000e+00
1.000000e+00
1.000000e+00
1.000000e+00
1.000000e+00
1.000000e+00
1.000000e+00
1.000000e+00
1.000000e+00
1.000000e+00
1.000000e+00
1.000000e+00
1.000000e+00
1.000000e+00
1.000000e+00
1.000000e+00
1.000000e+00
1.000000e+00
1.000000e+00
1.000000e+00
1.000000e+00
1.000000e+00
1.000000e+00
1.000000e+00
1.000000e+00
1.000000e+00
1.000000e+00
1.000000e+00
1.000000e+00
1.000000e+00
1.000000e+00
1.000000e+00
1.000000e+00
1.000000e+00
1.000000e+00
1.000000e+00
1.000000e+00
1.000000e+00
1.000000e+00
1.000000e+00
1.000000e+00
1.000000e+00
1.000000e+00
1.000000e+00
1.000000e+00
1.000000e+00
1.000000e+00
1.000000e+00
1.000000e+00
1.000000e+00
1.000000e+00
1.000000e+00
1.000000e+00
1.000000e+00
1.000000e+00
1.000000e+00
1.000000e+00
1.000000e+00
1.000000e+00
1.000000e+00
1.000000e+00
1.000000e+00
1.000000e+00
1.000000e+00
1.000000e+00
1.000000e+00
1.000000e+00
1.000000e+00
1.000000e+00
1.000000e+00
1.000000e+00
1.000000e+00
1.000000e+00
1.000000e+00
1.000000e+00
1.000000e+00
1.000000e+00
1.000000e+00
1.000000e+00
1.000000e+00
1.000000e+00
1.000000e+00
1.000000e+00
1.000000e+00
1.000000e+00
1.000000e+00
1.000000e+00
1.000000e+00
1.000000e+00
1.000000e+00
1.000000e+00
1.000000e+00
1.000000e+00
1.000000e+00
1.000000e+00
1.000000e+00
1.000000e+00
1.000000e+00
1.000000e+00
1.000000e+00
1.000000e+00
1.000000e+00
1.000000e+00
1.000000e+00
1.000000e+00
1.000000e+00
1.000000e+00
1.000000e+00
1.000000e+00
1.000000e+00
1.000000e+00
1.000000e+00
1.000000e+00
1.000000e+00
1.000000e+00
1.000000e+00
1.000000e+00
1.000000e+00
1.000000e+00
1.000000e+00
1.000000e+00
1.000000e+00
1.000000e+00
1.000000e+00
1.000000e+00
1.000000e+00
1.000000e+00
1.000000e+00
1.000000e+00
1.000000e+00
1.000000e+00
1.000000e+00
1.000000e+00
1.000000e+00
1.000000e+00
1.000000e+00
1.000000e+00
1.000000e+00
1.000000e+00
1.000000e+00
1.000000e+00
1.000000e+00
1.000000e+00
1.000000e+00
1.000000e+00
1.000000e+00
1.000000e+00
1.000000e+00
1.000000e+00
1.000000e+00
1.000000e+00
1.000000e+00
1.000001e+00
1.000024e+00
1.000436e+00
1.004372e+00
1.045021e+00
1.000000e+00
1.000000e+00
1.000000e+00
1.000001e+00
1.000025e+00
1.000447e+00
1.004478e+00
1.045803e+00
1.000000e+00
1.000000e+00
1.000001e+00
1.000025e+00
1.000448e+00
1.004481e+00
1.045820e+00
1.000000e+00
1.000000e+00
1.000001e+00
1.000025e+00
1.000447e+00
1.004478e+00
1.045803e+00
1.000000e+00
1.000000e+00
1.000001e+00
1.000024e+00
1.000436e+00
1.004372e+00
1.045021e+00
1.000000e+00
1.000000e+00
1.000000e+00
1.000001e+00
1.000023e+00
1.000429e+00
1.004336e+00
1.045047e+00
1.000000e+00
1.000000e+00
1.000000e+00
1.000001e+00
1.000024e+00
1.000440e+00
1.004442e+00
1.045833e+00
1.000000e+00
1.000000e+00
1.000001e+00
1.000024e+00
1.000440e+00
1.004444e+00
1.045850e+00
1.000000e+00
1.000000e+00
1.000001e+00
1.000024e+00
1.000440e+00
1.004442e+00
1.045833e+00
1.000000e+00
1.000000e+00
1.000001e+00
1.000023e+00
1.000429e+00
1.004336e+00
1.045047e+00
1.000000e+00
1.000000e+00
1.000000e+00
1.000001e+00
1.000022e+00
1.000415e+00
1.004240e+00
1.044609e+00
1.000000e+00
1.000000e+00
1.000000e+00
1.000001e+00
1.000023e+00
1.000426e+00
1.004344e+00
1.045387e+00
1.000000e+00
1.000000e+00
1.000001e+00
1.000023e+00
1.000427e+00
1.004346e+00
1.045404e+00
1.000000e+00
1.000000e+00
1.000001e+00
1.000023e+00
1.000426e+00
1.004344e+00
1.045387e+00
1.000000e+00
1.000000e+00
1.000001e+00
1.000022e+00
1.000415e+00
1.004240e+00
1.044609e+00
1.000000e+00
1.000000e+00
1.000000e+00
1.000001e+00
1.000021e+00
1.000402e+00
1.004147e+00
1.044172e+00
1.000000e+00
1.000000e+00
1.000000e+00
1.000001e+00
1.000022e+00
1.000413e+00
1.004249e+00
1.044943e+00
1.000000e+00
1.000000e+00
1.000001e+00
1.000022e+00
1.000413e+00
1.004251e+00
1.044960e+00
1.000000e+00
1.000000e+00
1.000001e+00
1.000022e+00
1.000413e+00
1.004249e+00
1.044943e+00
1.000000e+00
1.000000e+00
1.000001e+00
1.000021e+00
1.000402e+00
1.004147e+00
1.044172e+00
1.000000e+00
1.000000e+00
1.000000e+00
1.000000e+00
1.000001e+00
1.000020e+00
1.000390e+00
1.004056e+00
1.043737e+00
1.000000e+00
1.000000e+00
1.000000e+00
1.000000e+00
1.000001e+00
1.000021e+00
1.000400e+00
1.004155e+00
1.044501e+00
1.000000e+00
1.000000e+00
1.000001e+00
1.000021e+00
1.000400e+00
1.004157e+00
1.044517e+00
1.000000e+00
1.000000e+00
1.000001e+00
1.000021e+00
1.000400e+00
1.004155e+00
1.044501e+00
1.000000e+00
1.000000e+00
1.000001e+00
1.000020e+00
1.000390e+00
1.004056e+00
1.043737e+00
1.000000e+00
1.000000e+00
1.000000e+00
1.000000e+00
1.000001e+00
1.000019e+00
1.000372e+00
1.003910e+00
1.042865e+00
1.000000e+00
1.000000e+00
1.000000e+00
1.000000e+00
1.000001e+00
1.000020e+00
1.000382e+00
1.004005e+00
1.043612e+00
1.000000e+00
1.000000e+00
1.000001e+00
1.000020e+00
1.000382e+00
1.004007e+00
1.043627e+00
1.000000e+00
1.000000e+00
1.000001e+00
1.000020e+00
1.000382e+00
1.004005e+00
1.043612e+00
1.000000e+00
1.000000e+00
1.000001e+00
1.000019e+00
1.000372e+00
1.003910e+00
1.042865e+00
1.000000e+00
1.000000e+00
1.000000e+00
1.000000e+00
1.000000e+00
1.000000e+00
1.000000e+00
1.000000e+00
1.000000e+00
1.000000e+00
1.000000e+00
1.000000e+00
1.000000e+00
1.000000e+00
1.000000e+00
1.000000e+00
1.000000e+00
1.000000e+00
1.000000e+00
1.000000e+00
1.000000e+00
1.000000e+00
1.000000e+00
1.000000e+00
1.000000e+00
1.000000e+00
1.000000e+00
1.000000e+00
1.000000e+00
1.000000e+00
1.000000e+00
1.000000e+00
1.000000e+00
1.000000e+00
1.000000e+00
1.000000e+00
1.000000e+00
1.000000e+00
1.000000e+00
1.000000e+00
1.000000e+00
1.000000e+00
1.000000e+00
1.000000e+00
1.000000e+00
1.000000e+00
1.000000e+00
1.000000e+00
1.000000e+00
1.000000e+00
1.000000e+00
1.000000e+00
1.000000e+00
1.000000e+00
1.000000e+00
1.000000e+00
1.000000e+00
1.000000e+00
1.000000e+00
1.000000e+00
1.000000e+00
1.000000e+00
1.000000e+00
1.000000e+00
1.000000e+00
1.000000e+00
1.000000e+00
1.000000e+00
1.000000e+00
1.000000e+00
1.000000e+00
1.000000e+00
1.000000e+00
1.000000e+00
1.000000e+00
1.000000e+00
1.000000e+00
1.000000e+00
1.000000e+00
1.000000e+00
1.000000e+00
1.000000e+00
1.000000e+00
1.000000e+00
1.000000e+00
1.000000e+00
1.000000e+00
1.000000e+00
1.000000e+00
1.000000e+00
1.000000e+00
1.000000e+00
1.000000e+00
1.000000e+00
1.000000e+00
1.000000e+00
1.000000e+00
1.000000e+00
1.000000e+00
1.000000e+00
1.000000e+00
1.000000e+00
1.000000e+00
1.000000e+00
1.000000e+00
1.000000e+00
1.000000e+00
1.000000e+00
1.000000e+00
1.000000e+00
1.000000e+00
1.000000e+00
1.000000e+00
1.000000e+00
1.000000e+00
1.000000e+00
1.000000e+00
1.000000e+00
1.000000e+00
1.000000e+00
1.000000e+00
1.000000e+00
1.000000e+00
1.000000e+00
1.000000e+00
1.000000e+00
1.000000e+00
1.000000e+00
1.000000e+00
1.000000e+00
1.000000e+00
1.000000e+00
1.000000e+00
1.000000e+00
1.000000e+00
1.000000e+00
1.000000e+00
1.000000e+00
1.000000e+00
1.000000e+00
1.000000e+00
1.000000e+00
1.000000e+00
1.000000e+00
1.000000e+00
1.000000e+00
1.000000e+00
1.000000e+00
1.000000e+00
1.000000e+00
1.000000e+00
1.000000e+00
1.000000e+00
1.000000e+00
1.000000e+00
1.000000e+00
1.000000e+00
1.000000e+00
1.000000e+00
1.000000e+00
1.000000e+00
1.000000e+00
1.000000e+00
1.000000e+00
1.000000e+00
1.000000e+00
1.000000e+00
1.000000e+00
1.000000e+00
1.000000e+00
1.000000e+00
1.000000e+00
1.000000e+00
1.000000e+00
1.000000e+00
1.000000e+00
1.000000e+00
1.000000e+00
1.000000e+00
1.000000e+00
1.000000e+00
1.000000e+00
1.000000e+00
1.000000e+00
1.000000e+00
1.000000e+00
1.000000e+00
1.000000e+00
1.000000e+00
1.000000e+00
1.000000e+00
1.000000e+00
1.000000e+00
1.000000e+00
1.000000e+00
1.000000e+00
1.000000e+00
1.000000e+00
1.000000e+00
1.000000e+00
1.000000e+00
1.000000e+00
1.000000e+00
1.000000e+00
1.000000e+00
1.000000e+00
1.000000e+00
1.000000e+00
1.000000e+00
1.000000e+00
1.000000e+00
1.000000e+00
1.000000e+00
1.000000e+00
1.000000e+00
1.000000e+00
1.000000e+00
1.000000e+00
1.000000e+00
1.000000e+00
1.000000e+00
1.000000e+00
1.000000e+00
1.000000e+00
1.000000e+00
1.000000e+00
1.000000e+00
1.000000e+00
1.000000e+00
1.000000e+00
1.000000e+00
1.000000e+00
1.000000e+00
1.000000e+00
1.000000e+00
1.000000e+00
1.000000e+00
1.000000e+00
1.000000e+00
1.000000e+00
1.000000e+00
1.000000e+00
1.000000e+00
1.000000e+00
1.000000e+00
1.000000e+00
1.000000e+00
1.000000e+00
1.000000e+00
1.000000e+00
1.000000e+00
1.000000e+00
1.000000e+00
1.000000e+00
1.000000e+00
1.000000e+00
1.000000e+00
1.000000e+00
1.000000e+00
1.000000e+00
1.000000e+00
1.000000e+00
1.000000e+00
1.000000e+00
1.000000e+00
1.000000e+00
1.000000e+00
1.000000e+00
1.000000e+00
1.000000e+00
1.000000e+00
1.000000e+00
1.000000e+00
1.000000e+00
1.000000e+00
1.000000e+00
1.000000e+00
1.000000e+00
1.000000e+00
1.000000e+00
1.000000e+00
1.000000e+00
1.000000e+00
1.000000e+00
1.000000e+00
1.000000e+00
1.000000e+00
1.000000e+00
1.000000e+00
1.000000e+00
1.000000e+00
1.000000e+00
1.000000e+00
1.000000e+00
1.000000e+00
1.000000e+00
1.000000e+00
1.000000e+00
1.000000e+00
1.000000e+00
1.000000e+00
1.000000e+00
1.000000e+00
1.000000e+00
1.000000e+00
1.000000e+00
1.000000e+00
1.000000e+00
1.000000e+00
1.000000e+00
1.000000e+00
1.000000e+00
1.000000e+00
1.000000e+00
1.000000e+00
1.000000e+00
1.000000e+00
1.000000e+00
1.000000e+00
1.000000e+00
1.000000e+00
1.000000e+00
1.000000e+00
1.000000e+00
1.000000e+00
1.000000e+00
1.000000e+00
1.000000e+00
1.000000e+00
1.000000e+00
1.000000e+00
1.000000e+00
1.000000e+00
1.000000e+00
1.000000e+00
1.000000e+00
1.000000e+00
1.000000e+00
1.000000e+00
1.000000e+00
1.000000e+00
1.000000e+00
1.000000e+00
1.000000e+00
1.000000e+00
1.000000e+00
1.000000e+00
1.000000e+00
1.000000e+00
1.000000e+00
1.000000e+00
1.000000e+00
1.000000e+00
1.000000e+00
1.000000e+00
1.000000e+00
1.000000e+00
1.000000e+00
1.000000e+00
1.000000e+00
1.000000e+00
1.000000e+00
1.000000e+00
1.000000e+00
1.000000e+00
1.000000e+00
1.000000e+00
1.000000e+00
1.000000e+00
1.000000e+00
1.000000e+00
1.000000e+00
1.000000e+00
1.000000e+00
1.000000e+00
1.000000e+00
1.000000e+00
1.000000e+00
1.000000e+00
1.000000e+00
1.000000e+00
1.000000e+00
1.000000e+00
1.000000e+00
1.000000e+00
1.000000e+00
1.000000e+00
1.000000e+00
1.000000e+00
1.000000e+00
1.000000e+00
1.000000e+00
1.000000e+00
1.000000e+00
1.000000e+00
1.000000e+00
1.000000e+00
1.000000e+00
1.000000e+00
1.000000e+00
1.000000e+00
1.000000e+00
1.000000e+00
1.000000e+00
1.000000e+00
1.000000e+00
1.000000e+00
1.000000e+00
1.000000e+00
1.000000e+00
1.000000e+00
1.000000e+00
1.000000e+00
1.000000e+00
1.000000e+00
1.000000e+00
1.000000e+00
1.000000e+00
1.000000e+00
1.000000e+00
1.000000e+00
1.000000e+00
1.000000e+00
1.000000e+00
1.000000e+00
1.000000e+00
1.000000e+00
1.000000e+00
1.000000e+00
1.000000e+00
1.000000e+00
1.000000e+00
1.000000e+00
1.000000e+00
1.000000e+00
1.000000e+00
1.000000e+00
1.000000e+00
VECTORS Momentum double
0.000000e+00 8.010259e-18 -1.067735e-17
0.000000e+00 -2.775558e-18 8.718673e-18
-4.440892e-18 0.000000e+00 4.312199e-27
0.000000e+00 -5.856426e-18 2.675449e-24
1.509903e-17 5.193068e-18 1.521822e-21
4.098536e-15 2.812453e-16 7.712221e-19
1.976867e-13 1.175347e-14 3.412050e-16
7.725537e-12 4.095774e-13 1.651963e-14
4.440892e-18 -2.775558e-18 1.067735e-17
-4.440892e-18 2.139955e-18 -8.718673e-18
1.332268e-17 2.220446e-18 9.516713e-28
0.000000e+00 4.996004e-18 6.599899e-25
2.087219e-18 1.876277e-18 4.266624e-22
4.225915e-15 2.900247e-16 2.459902e-19
2.040080e-13 1.218243e-14 1.222735e-16
7.968975e-12 4.223584e-13 5.765659e-15
0.000000e+00 -6.333822e-18 4.359337e-18
1.332268e-17 3.774758e-18 -1.795247e-39
0.000000e+00 1.665335e-18 -8.495476e-37
-1.665335e-18 -4.723999e-18 -3.592674e-34
4.232893e-15 2.835322e-16 -1.334642e-31
2.041255e-13 1.218532e-14 -1.452834e-29
7.973383e-12 4.225569e-13 -2.130888e-27
2.954737e-10 1.379468e-11 -3.924619e-25
-4.440892e-18 6.661338e-18 -4.359337e-18
1.332268e-17 2.220446e-18 -9.516806e-28
0.000000e+00 4.812817e-18 -6.599926e-25
-1.931788e-18 4.682366e-18 -4.266630e-22
4.225915e-15 2.900191e-16 -2.459903e-19
2.040080e-13 1.218233e-14 -1.222735e-16
7.968975e-12 4.223584e-13 -5.765659e-15
2.953155e-10 1.378775e-11 -2.185989e-13
0.000000e+00 1.665335e-18 -6.549056e-30
-8.881784e-18 1.110223e-18 -4.313572e-27
0.000000e+00 -4.640732e-18 -2.676287e-24
1.560974e-17 4.002354e-18 -1.522402e-21
4.098536e-15 2.812065e-16 -7.715026e-19
1.976867e-13 1.175333e-14 -3.412098e-16
7.725537e-12 4.095775e-13 -1.651999e-14
2.863550e-10 1.336908e-11 -6.317967e-13
-2.160494e-17 6.356027e-18 1.935641e-32
-4.440892e-18 -1.665335e-18 1.411317e-29
1.776357e-17 -4.996004e-18 9.109799e-27
1.332268e-17 5.551115e-19 5.141480e-24
-1.303402e-17 -3.125278e-18 2.517880e-21
3.648052e-15 2.495131e-16 1.068780e-18
1.807298e-13 1.065198e-14 3.981916e-16
7.136930e-12 3.729069e-13 1.507582e-14
-1.332268e-17 -2.634004e-18 7.605292e-33
1.332268e-17 3.330669e-18 5.656917e-30
-8.881784e-18 -5.492828e-18 3.667246e-27
1.332268e-17 -2.775558e-18 2.056314e-24
-3.907985e-18 6.106227e-20 9.935159e-22
3.806954e-15 2.553215e-16 4.148029e-19
1.864094e-13 1.100043e-14 1.524635e-16
7.362138e-12 3.847347e-13 5.200340e-15
-1.332268e-17 1.665335e-18 7.814398e-41
0.000000e+00 2.717271e-18 4.312167e-38
0.000000e+00 -6.106227e-18 2.150919e-35
-2.553513e-18 6.550316e-19 9.486331e-33
3.810418e-15 2.556962e-16 3.638522e-30
1.864697e-13 1.099978e-14 3.442782e-28
7.365869e-12 3.849112e-13 -4.076365e-27
2.759904e-10 1.267322e-11 -1.487817e-25
1.332268e-17 -1.110223e-18 -5.698650e-30
-8.881784e-18 -5.551115e-18 -3.690984e-27
1.776357e-17 -4.440892e-18 -2.067511e-24
-3.907985e-18 6.106227e-20 -9.977678e-22
3.807176e-15 2.552771e-16 -4.160467e-19
1.864109e-13 1.099766e-14 -1.527726e-16
7.362137e-12 3.847328e-13 -5.200251e-15
2.758426e-10 1.266642e-11 -2.041245e-13
-4.440892e-18 -3.064216e-18 -1.410567e-29
1.332268e-17 -1.665335e-18 -9.102624e-27
1.332268e-17 5.551115e-19 -5.137754e-24
-1.303402e-17 -3.125278e-18 -2.516802e-21
3.648119e-15 2.495076e-16 -1.068721e-18
1.807296e-13 1.065166e-14 -3.983254e-16
7.136931e-12 3.729074e-13 -1.507564e-14
2.674718e-10 1.228233e-11 -5.907348e-13
-3.100404e-15 -3.373916e-16 1.029768e-17
3.641532e-18 1.021405e-18 1.703632e-23
0.000000e+00 -2.775558e-18 1.894969e-21
-8.881784e-18 -7.191470e-18 1.575737e-19
8.570922e-18 2.156608e-18 8.724081e-18
3.228008e-15 2.155928e-16 7.879308e-19
1.623490e-13 9.559707e-15 3.114036e-16
6.481784e-12 3.371465e-13 1.407972e-14
-3.410605e-17 1.942890e-18 -2.134317e-17
8.881784e-18 5.551115e-19 -4.362012e-18
1.776357e-17 3.330669e-18 -7.882699e-20
-8.881784e-18 5.551115e-19 -4.361159e-18
3.486100e-18 2.831069e-18 -3.517021e-22
3.349492e-15 2.297065e-16 2.008660e-19
1.676406e-13 9.843237e-15 1.073399e-16
6.685794e-12 3.477754e-13 4.924378e-15
0.000000e+00 1.665335e-18 4.361063e-18
-4.440892e-18 1.665335e-18 -2.922506e-32
4.440892e-18 1.665335e-18 -1.634524e-29
3.974598e-18 2.278733e-18 -1.620906e-26
3.344185e-15 2.293429e-16 -2.575803e-23
1.677064e-13 9.847612e-15 -2.249284e-20
6.689548e-12 3.479731e-13 -4.387257e-20
2.533675e-10 1.157209e-11 1.107887e-19
1.554312e-19 0.000000e+00 -4.360123e-18
1.332268e-17 2.775558e-18 7.787094e-20
-1.332268e-17 3.702594e-18 4.281419e-18
4.218847e-18 1.632028e-18 -4.440548e-18
3.349337e-15 2.282410e-16 -4.642232e-18
1.676356e-13 9.842665e-15 -1.116667e-16
6.685797e-12 3.477746e-13 -4.931431e-15
2.532321e-10 1.156586e-11 -1.871963e-13
6.264779e-17 6.257576e-18 -7.961206e-30
4.440892e-18 2.736700e-18 -5.355905e-27
-8.881784e-18 -7.169265e-18 -3.212772e-24
8.104628e-18 3.338996e-18 -1.698368e-21
3.220724e-15 2.173997e-16 -7.873225e-19
1.623492e-13 9.559633e-15 -3.108300e-16
6.481811e-12 3.371458e-13 -1.407997e-14
2.455476e-10 1.121512e-11 -5.411475e-13
3.858529e-15 3.826223e-16 3.130957e-17
4.302428e-17 6.049381e-18 -1.506212e-23
0.000000e+00 0.000000e+00 -1.693287e-21
4.440892e-18 1.110223e-18 -1.423033e-19
2.087219e-18 -3.907985e-18 -7.960379e-18
2.843065e-15 1.924440e-16 4.769547e-19
1.460730e-13 8.582910e-15 2.370703e-16
5.891393e-12 3.064978e-13 1.251039e-14
1.998401e-17 1.998401e-18 3.441937e-17
4.440892e-18 -5.551115e-19 3.877316e-18
1.776357e-17 3.769207e-18 7.056998e-20
0.000000e+00 -3.330669e-18 3.945909e-18
-6.217249e-18 -2.886580e-18 1.066261e-21
2.940037e-15 1.963291e-16 2.106001e-19
1.506921e-13 8.854446e-15 8.290596e-17
6.077265e-12 3.161006e-13 4.320394e-15
0.000000e+00 1.665335e-18 -3.876476e-18
-1.603162e-17 -5.434542e-18 -2.947908e-34
4.440892e-18 1.665335e-18 -3.183592e-31
-9.414691e-18 9.797718e-19 -3.422346e-28
2.945877e-15 2.006201e-16 -3.039239e-25
1.507368e-13 8.860064e-15 4.421717e-20
6.080370e-12 3.162750e-13 -6.715038e-20
2.327663e-10 1.063641e-11 -6.588407e-20
4.130030e-18 4.052314e-18 3.875643e-18
1.776357e-17 3.885781e-18 -6.971569e-20
4.440892e-18 -3.885781e-18 -3.873896e-18
-1.061373e-17 -2.883804e-18 4.052132e-18
2.940259e-15 1.964124e-16 3.875980e-18
1.506954e-13 8.853972e-15 -7.894871e-17
6.077262e-12 3.161006e-13 -4.323444e-15
2.326420e-10 1.063080e-11 -1.720871e-13
-3.597123e-18 -3.597123e-18 4.854244e-19
-4.263256e-18 -5.551115e-19 8.178157e-23
4.440892e-18 -2.220446e-18 6.890670e-21
-6.639134e-18 -4.379830e-18 3.868514e-19
2.856810e-15 1.951335e-16 -1.233661e-19
1.460734e-13 8.582857e-15 -2.370124e-16
5.891391e-12 3.065002e-13 -1.250295e-14
2.255820e-10 1.030808e-11 -4.979913e-13
2.016165e-17 2.582328e-17 9.959960e-33
1.776357e-17 2.775558e-18 7.956411e-30
-4.440892e-18 2.775558e-18 5.086938e-27
-4.440892e-18 0.000000e+00 2.887212e-24
-3.375078e-18 2.087219e-18 1.437313e-21
2.499285e-15 1.725833e-16 6.334108e-19
1.313208e-13 7.699199e-15 2.500205e-16
-1.332268e-17 4.971024e-18 4.698360e-33
4.440892e-18 2.220446e-18 3.297285e-30
1.776357e-17 1.110223e-18 2.082998e-27
0.000000e+00 4.996004e-18 1.152890e-24
-7.305268e-18 5.881406e-18 5.538776e-22
2.592537e-15 1.749109e-16 2.358208e-19
1.355244e-13 7.939488e-15 9.136846e-17
-8.881784e-18 -2.220446e-18 3.766808e-42
0.000000e+00 -3.330669e-18 2.998911e-39
0.000000e+00 -1.110223e-18 1.950230e-36
-2.398082e-18 -2.797762e-18 1.042266e-33
2.595579e-15 1.707670e-16 4.569175e-31
1.355823e-13 7.942736e-15 -8.538893e-30
5.531023e-12 2.865237e-13 -9.036229e-29
2.139826e-10 9.729092e-12 2.220434e-20
4.440892e-18 2.220446e-18 -3.297239e-30
1.776357e-17 1.110223e-18 -2.082974e-27
0.000000e+00 4.996004e-18 -1.152879e-24
-7.305268e-18 6.017409e-18 -5.538729e-22
2.592692e-15 1.800818e-16 -2.358193e-19
1.355245e-13 7.939520e-15 -9.136810e-17
5.527993e-12 2.863712e-13 -4.003795e-15
2.138680e-10 9.723745e-12 -1.583707e-13
1.776357e-17 2.220446e-18 -7.930700e-30
-4.440892e-18 2.775558e-18 -5.071813e-27
-4.440892e-18 -5.551115e-19 -2.879690e-24
-6.949996e-18 4.996004e-19 -1.434591e-21
2.499640e-15 1.733188e-16 -6.329537e-19
1.313210e-13 7.700132e-15 -2.500596e-16
5.358965e-12 2.776094e-13 -1.147479e-14
2.073779e-10 9.428963e-12 -4.577285e-13
0.000000e+00 -5.551115e-19 3.060006e-33
-4.440892e-18 0.000000e+00 2.164325e-30
4.440892e-18 2.220446e-18 1.480246e-27
1.332268e-17 1.665335e-18 9.765522e-25
-2.584599e-17 1.404432e-18 6.119314e-22
2.188190e-15 1.412569e-16 3.502494e-19
1.160809e-13 6.741033e-15 1.716183e-16