# vtk DataFile Version 2.0
Simplicial Mesh Example
ASCII
DATASET UNSTRUCTURED_GRID
POINTS 1302 double
0.000000e+00 1.000000e+00 5.000000e-01
-5.551115e-17 1.000000e+00 3.000000e-01
3.302130e-02 6.666667e-01 5.000000e-01
3.302130e-02 6.666667e-01 3.000000e-01
-2.000000e-01 1.000000e+00 5.000000e-01
-2.000000e-01 1.000000e+00 3.000000e-01
-1.691801e-01 6.666667e-01 5.000000e-01
-1.691801e-01 6.666667e-01 3.000000e-01
-4.000000e-01 1.000000e+00 5.000000e-01
-4.000000e-01 1.000000e+00 3.000000e-01
-3.713816e-01 6.666667e-01 5.000000e-01
-3.713816e-01 6.666667e-01 3.000000e-01
-6.000000e-01 1.000000e+00 5.000000e-01
-6.000000e-01 1.000000e+00 3.000000e-01
-5.735829e-01 6.666667e-01 5.000000e-01
-5.735829e-01 6.666667e-01 3.000000e-01
-8.000000e-01 1.000000e+00 5.000000e-01
-8.000000e-01 1.000000e+00 3.000000e-01
-7.757844e-01 6.666667e-01 5.000000e-01
-7.757844e-01 6.666667e-01 3.000000e-01
-1.000000e+00 1.000000e+00 5.000000e-01
-1.000000e+00 1.000000e+00 3.000000e-01
-9.779858e-01 6.666667e-01 5.000000e-01
-9.779858e-01 6.666667e-01 3.000000e-01
-1.200000e+00 1.000000e+00 5.000000e-01
-1.200000e+00 1.000000e+00 3.000000e-01
-1.180187e+00 6.666667e-01 5.000000e-01
-1.180187e+00 6.666667e-01 3.000000e-01
-2.000000e-01 1.000000e+00 1.000000e-01
-1.691801e-01 6.666667e-01 1.000000e-01
-4.000000e-01 1.000000e+00 1.000000e-01
-3.713816e-01 6.666667e-01 1.000000e-01
-6.000000e-01 1.000000e+00 1.000000e-01
-5.735829e-01 6.666667e-01 1.000000e-01
-8.000000e-01 1.000000e+00 1.000000e-01
-7.757844e-01 6.666667e-01 1.000000e-01
-1.000000e+00 1.000000e+00 1.000000e-01
-9.779858e-01 6.666667e-01 1.000000e-01
-1.200000e+00 1.000000e+00 1.000000e-01
-1.180187e+00 6.666667e-01 1.000000e-01
-2.000000e-01 1.000000e+00 -1.000000e-01
-1.691801e-01 6.666667e-01 -1.000000e-01
-4.000000e-01 1.000000e+00 -1.000000e-01
-3.713816e-01 6.666667e-01 -1.000000e-01
-6.000000e-01 1.000000e+00 -1.000000e-01
-5.735829e-01 6.666667e-01 -1.000000e-01
-8.000000e-01 1.000000e+00 -1.000000e-01
-7.757844e-01 6.666667e-01 -1.000000e-01
-1.000000e+00 1.000000e+00 -1.000000e-01
-9.779858e-01 6.666667e-01 -1.000000e-01
-1.200000e+00 1.000000e+00 -1.000000e-01
-1.180187e+00 6.666667e-01 -1.000000e-01
-1.400000e+00 1.000000e+00 -1.000000e-01
-1.382389e+00 6.666667e-01 -1.000000e-01
-2.000000e-01 1.000000e+00 -3.000000e-01
-1.691801e-01 6.666667e-01 -3.000000e-01
-4.000000e-01 1.000000e+00 -3.000000e-01
-3.713816e-01 6.666667e-01 -3.000000e-01
-6.000000e-01 1.000000e+00 -3.000000e-01
-5.735829e-01 6.666667e-01 -3.000000e-01
-8.000000e-01 1.000000e+00 -3.000000e-01
-7.757844e-01 6.666667e-01 -3.000000e-01
-1.000000e+00 1.000000e+00 -3.000000e-01
-9.779858e-01 6.666667e-01 -3.000000e-01
-1.200000e+00 1.000000e+00 -3.000000e-01
-1.180187e+00 6.666667e-01 -3.000000e-01
-1.400000e+00 1.000000e+00 -3.000000e-01
-1.382389e+00 6.666667e-01 -3.000000e-01
-2.000000e-01 1.000000e+00 -5.000000e-01
-1.691801e-01 6.666667e-01 -5.000000e-01
-4.000000e-01 1.000000e+00 -5.000000e-01
-3.713816e-01 6.666667e-01 -5.000000e-01
-6.000000e-01 1.000000e+00 -5.000000e-01
-5.735829e-01 6.666667e-01 -5.000000e-01
-8.000000e-01 1.000000e+00 -5.000000e-01
-7.757844e-01 6.666667e-01 -5.000000e-01
-1.000000e+00 1.000000e+00 -5.000000e-01
-9.779858e-01 6.666667e-01 -5.000000e-01
-1.200000e+00 1.000000e+00 -5.000000e-01
-1.180187e+00 6.666667e-01 -5.000000e-01
-1.400000e+00 1.000000e+00 -5.000000e-01
-1.382389e+00 6.666667e-01 -5.000000e-01
6.604260e-02 3.333333e-01 5.000000e-01
6.604260e-02 3.333333e-01 3.000000e-01
-1.383602e-01 3.333333e-01 5.000000e-01
-1.383602e-01 3.333333e-01 3.000000e-01
-3.427631e-01 3.333333e-01 5.000000e-01
-3.427631e-01 3.333333e-01 3.000000e-01
-5.471659e-01 3.333333e-01 5.000000e-01
-5.471659e-01 3.333333e-01 3.000000e-01
-7.515687e-01 3.333333e-01 5.000000e-01
-7.515687e-01 3.333333e-01 3.000000e-01
-9.559716e-01 3.333333e-01 5.000000e-01
-9.559716e-01 3.333333e-01 3.000000e-01
-1.160374e+00 3.333333e-01 5.000000e-01
-1.160374e+00 3.333333e-01 3.000000e-01
-1.383602e-01 3.333333e-01 1.000000e-01
-3.427631e-01 3.333333e-01 1.000000e-01
-5.471659e-01 3.333333e-01 1.000000e-01
-7.515687e-01 3.333333e-01 1.000000e-01
-9.559716e-01 3.333333e-01 1.000000e-01
-1.160374e+00 3.333333e-01 1.000000e-01
-1.383602e-01 3.333333e-01 -1.000000e-01
-3.427631e-01 3.333333e-01 -1.000000e-01
-5.471659e-01 3.333333e-01 -1.000000e-01
-7.515687e-01 3.333333e-01 -1.000000e-01
-9.559716e-01 3.333333e-01 -1.000000e-01
-1.160374e+00 3.333333e-01 -1.000000e-01
-1.364777e+00 3.333333e-01 -1.000000e-01
-1.383602e-01 3.333333e-01 -3.000000e-01
-3.427631e-01 3.333333e-01 -3.000000e-01
-5.471659e-01 3.333333e-01 -3.000000e-01
-7.515687e-01 3.333333e-01 -3.000000e-01
-9.559716e-01 3.333333e-01 -3.000000e-01
-1.160374e+00 3.333333e-01 -3.000000e-01
-1.364777e+00 3.333333e-01 -3.000000e-01
-1.383602e-01 3.333333e-01 -5.000000e-01
-3.427631e-01 3.333333e-01 -5.000000e-01
-5.471659e-01 3.333333e-01 -5.000000e-01
-7.515687e-01 3.333333e-01 -5.000000e-01
-9.559716e-01 3.333333e-01 -5.000000e-01
-1.160374e+00 3.333333e-01 -5.000000e-01
-1.364777e+00 3.333333e-01 -5.000000e-01
9.906390e-02 -2.775558e-17 5.000000e-01
9.906390e-02 -5.551115e-17 3.000000e-01
-1.075404e-01 0.000000e+00 5.000000e-01
-1.075404e-01 0.000000e+00 3.000000e-01
-3.141446e-01 0.000000e+00 5.000000e-01
-3.141446e-01 0.000000e+00 3.000000e-01
-5.207489e-01 0.000000e+00 5.000000e-01
-5.207489e-01 0.000000e+00 3.000000e-01
-7.273532e-01 -5.551115e-17 5.000000e-01
-7.273532e-01 0.000000e+00 3.000000e-01
-9.339574e-01 0.000000e+00 5.000000e-01
-9.339574e-01 0.000000e+00 3.000000e-01
-1.140562e+00 0.000000e+00 5.000000e-01
-1.140562e+00 0.000000e+00 3.000000e-01
-1.075404e-01 -2.775558e-17 1.000000e-01
-3.141446e-01 0.000000e+00 1.000000e-01
-5.207489e-01 -2.775558e-17 1.000000e-01
-7.273532e-01 0.000000e+00 1.000000e-01
-9.339574e-01 0.000000e+00 1.000000e-01
-1.140562e+00 -2.775558e-17 1.000000e-01
-1.075404e-01 0.000000e+00 -1.000000e-01
-3.141446e-01 0.000000e+00 -1.000000e-01
-5.207489e-01 -2.775558e-17 -1.000000e-01
-7.273532e-01 0.000000e+00 -1.000000e-01
-9.339574e-01 0.000000e+00 -1.000000e-01
-1.140562e+00 -2.775558e-17 -1.000000e-01
-1.347166e+00 0.000000e+00 -1.000000e-01
-1.075404e-01 -2.775558e-17 -3.000000e-01
-3.141446e-01 0.000000e+00 -3.000000e-01
-5.207489e-01 0.000000e+00 -3.000000e-01
-7.273532e-01 -2.775558e-17 -3.000000e-01
-9.339574e-01 -2.775558e-17 -3.000000e-01
-1.140562e+00 -2.775558e-17 -3.000000e-01
-1.347166e+00 -5.551115e-17 -3.000000e-01
-1.075404e-01 0.000000e+00 -5.000000e-01
-3.141446e-01 0.000000e+00 -5.000000e-01
-5.207489e-01 0.000000e+00 -5.000000e-01
-7.273532e-01 0.000000e+00 -5.000000e-01
-9.339574e-01 0.000000e+00 -5.000000e-01
-1.140562e+00 0.000000e+00 -5.000000e-01
-1.347166e+00 -5.551115e-17 -5.000000e-01
1.320852e-01 -3.333333e-01 5.000000e-01
1.320852e-01 -3.333333e-01 3.000000e-01
-7.672048e-02 -3.333333e-01 5.000000e-01
-7.672048e-02 -3.333333e-01 3.000000e-01
-2.855262e-01 -3.333333e-01 5.000000e-01
-2.855262e-01 -3.333333e-01 3.000000e-01
-4.943318e-01 -3.333333e-01 5.000000e-01
-4.943318e-01 -3.333333e-01 3.000000e-01
-7.031375e-01 -3.333333e-01 5.000000e-01
-7.031375e-01 -3.333333e-01 3.000000e-01
-9.119432e-01 -3.333333e-01 5.000000e-01
-9.119432e-01 -3.333333e-01 3.000000e-01
-7.672048e-02 -3.333333e-01 1.000000e-01
-2.855262e-01 -3.333333e-01 1.000000e-01
-4.943318e-01 -3.333333e-01 1.000000e-01
-7.031375e-01 -3.333333e-01 1.000000e-01
-9.119432e-01 -3.333333e-01 1.000000e-01
-7.672048e-02 -3.333333e-01 -1.000000e-01
-2.855262e-01 -3.333333e-01 -1.000000e-01
-4.943318e-01 -3.333333e-01 -1.000000e-01
-7.031375e-01 -3.333333e-01 -1.000000e-01
-9.119432e-01 -3.333333e-01 -1.000000e-01
-1.120749e+00 -3.333333e-01 -1.000000e-01
-1.329555e+00 -3.333333e-01 -1.000000e-01
-7.672048e-02 -3.333333e-01 -3.000000e-01
-2.855262e-01 -3.333333e-01 -3.000000e-01
-4.943318e-01 -3.333333e-01 -3.000000e-01
-7.031375e-01 -3.333333e-01 -3.000000e-01
-9.119432e-01 -3.333333e-01 -3.000000e-01
-1.120749e+00 -3.333333e-01 -3.000000e-01
-1.329555e+00 -3.333333e-01 -3.000000e-01
-7.672048e-02 -3.333333e-01 -5.000000e-01
-2.855262e-01 -3.333333e-01 -5.000000e-01
-4.943318e-01 -3.333333e-01 -5.000000e-01
-7.031375e-01 -3.333333e-01 -5.000000e-01
-9.119432e-01 -3.333333e-01 -5.000000e-01
-1.120749e+00 -3.333333e-01 -5.000000e-01
-1.329555e+00 -3.333333e-01 -5.000000e-01
1.651065e-01 -6.666667e-01 5.000000e-01
1.651065e-01 -6.666667e-01 3.000000e-01
-4.590059e-02 -6.666667e-01 5.000000e-01
-4.590059e-02 -6.666667e-01 3.000000e-01
-2.569077e-01 -6.666667e-01 5.000000e-01
-2.569077e-01 -6.666667e-01 3.000000e-01
-4.679148e-01 -6.666667e-01 5.000000e-01
-4.679148e-01 -6.666667e-01 3.000000e-01
-6.789219e-01 -6.666667e-01 5.000000e-01
-6.789219e-01 -6.666667e-01 3.000000e-01
-8.899290e-01 -6.666667e-01 5.000000e-01
-8.899290e-01 -6.666667e-01 3.000000e-01
-4.590059e-02 -6.666667e-01 1.000000e-01
-2.569077e-01 -6.666667e-01 1.000000e-01
-4.679148e-01 -6.666667e-01 1.000000e-01
-6.789219e-01 -6.666667e-01 1.000000e-01
-8.899290e-01 -6.666667e-01 1.000000e-01
-4.590059e-02 -6.666667e-01 -1.000000e-01
-2.569077e-01 -6.666667e-01 -1.000000e-01
-4.679148e-01 -6.666667e-01 -1.000000e-01
-6.789219e-01 -6.666667e-01 -1.000000e-01
-8.899290e-01 -6.666667e-01 -1.000000e-01
-1.100936e+00 -6.666667e-01 -1.000000e-01
-1.311943e+00 -6.666667e-01 -1.000000e-01
-4.590059e-02 -6.666667e-01 -3.000000e-01
-2.569077e-01 -6.666667e-01 -3.000000e-01
-4.679148e-01 -6.666667e-01 -3.000000e-01
-6.789219e-01 -6.666667e-01 -3.000000e-01
-8.899290e-01 -6.666667e-01 -3.000000e-01
-1.100936e+00 -6.666667e-01 -3.000000e-01
-1.311943e+00 -6.666667e-01 -3.000000e-01
-4.590059e-02 -6.666667e-01 -5.000000e-01
-2.569077e-01 -6.666667e-01 -5.000000e-01
-4.679148e-01 -6.666667e-01 -5.000000e-01
-6.789219e-01 -6.666667e-01 -5.000000e-01
-8.899290e-01 -6.666667e-01 -5.000000e-01
-1.100936e+00 -6.666667e-01 -5.000000e-01
-1.311943e+00 -6.666667e-01 -5.000000e-01
1.981278e-01 -1.000000e+00 5.000000e-01
1.981278e-01 -1.000000e+00 3.000000e-01
[...]
CELL_DATA 900
SCALARS Density double 1
LOOKUP_TABLE default
1.000000e+00
1.000000e+00
1.000000e+00
1.000000e+00
1.000000e+00
1.000000e+00
1.000000e+00
1.000001e+00
1.000000e+00
1.000000e+00
1.000000e+00
1.000000e+00
1.000000e+00
1.000000e+00
1.000000e+00
1.000001e+00
1.000000e+00
1.000000e+00
1.000000e+00
1.000000e+00
1.000000e+00
1.000000e+00
1.000001e+00
1.000009e+00
1.000000e+00
1.000000e+00
1.000000e+00
1.000000e+00
1.000000e+00
1.000000e+00
1.000001e+00
1.000009e+00
1.000000e+00
1.000000e+00
1.000000e+00
1.000000e+00
1.000000e+00
1.000000e+00
1.000001e+00
1.000008e+00
1.000000e+00
1.000000e+00
1.000000e+00
1.000000e+00
1.000000e+00
1.000000e+00
1.000000e+00
1.000001e+00
1.000000e+00
1.000000e+00
1.000000e+00
1.000000e+00
1.000000e+00
1.000000e+00
1.000000e+00
1.000001e+00
1.000000e+00
1.000000e+00
1.000000e+00
1.000000e+00
1.000000e+00
1.000000e+00
1.000001e+00
1.000009e+00
1.000000e+00
1.000000e+00
1.000000e+00
1.000000e+00
1.000000e+00
1.000000e+00
1.000001e+00
1.000009e+00
1.000000e+00
1.000000e+00
1.000000e+00
1.000000e+00
1.000000e+00
1.000000e+00
1.000001e+00
1.000008e+00
1.000000e+00
1.000000e+00
1.000000e+00
1.000000e+00
1.000000e+00
1.000000e+00
1.000000e+00
1.000001e+00
1.000000e+00
1.000000e+00
1.000000e+00
1.000000e+00
1.000000e+00
1.000000e+00
1.000000e+00
1.000001e+00
1.000000e+00
1.000000e+00
1.000000e+00
1.000000e+00
1.000000e+00
1.000000e+00
1.000001e+00
1.000008e+00
1.000000e+00
1.000000e+00
1.000000e+00
1.000000e+00
1.000000e+00
1.000000e+00
1.000001e+00
1.000008e+00
1.000000e+00
1.000000e+00
1.000000e+00
1.000000e+00
1.000000e+00
1.000000e+00
1.000001e+00
1.000007e+00
1.000000e+00
1.000000e+00
1.000000e+00
1.000000e+00
1.000000e+00
1.000000e+00
1.000000e+00
1.000001e+00
1.000000e+00
1.000000e+00
1.000000e+00
1.000000e+00
1.000000e+00
1.000000e+00
1.000000e+00
1.000001e+00
1.000000e+00
1.000000e+00
1.000000e+00
1.000000e+00
1.000000e+00
1.000000e+00
1.000001e+00
1.000008e+00
1.000000e+00
1.000000e+00
1.000000e+00
1.000000e+00
1.000000e+00
1.000000e+00
1.000001e+00
1.000008e+00
1.000000e+00
1.000000e+00
1.000000e+00
1.000000e+00
1.000000e+00
1.000000e+00
1.000001e+00
1.000007e+00
1.000000e+00
1.000000e+00
1.000000e+00
1.000000e+00
1.000000e+00
1.000000e+00
1.000000e+00
1.000000e+00
1.000000e+00
1.000000e+00
1.000000e+00
1.000000e+00
1.000000e+00
1.000000e+00
1.000000e+00
1.000000e+00
1.000000e+00
1.000000e+00
1.000000e+00
1.000000e+00
1.000001e+00
1.000007e+00
1.000000e+00
1.000000e+00
1.000000e+00
1.000000e+00
1.000000e+00
1.000000e+00
1.000001e+00
1.000007e+00
1.000000e+00
1.000000e+00
1.000000e+00
1.000000e+00
1.000000e+00
1.000000e+00
1.000001e+00
1.000006e+00
1.000000e+00
1.000000e+00
1.000000e+00
1.000000e+00
1.000000e+00
1.000000e+00
1.000000e+00
1.000000e+00
1.000000e+00
1.000000e+00
1.000000e+00
1.000000e+00
1.000000e+00
1.000000e+00
1.000000e+00
1.000000e+00
1.000000e+00
1.000000e+00
1.000000e+00
1.000000e+00
1.000001e+00
1.000006e+00
1.000000e+00
1.000000e+00
1.000000e+00
1.000000e+00
1.000000e+00
1.000000e+00
1.000001e+00
1.000006e+00
1.000000e+00
1.000000e+00
1.000000e+00
1.000000e+00
1.000000e+00
1.000000e+00
1.000001e+00
1.000005e+00
1.000008e+00
1.000058e+00
1.000346e+00
1.001874e+00
1.008091e+00
1.029013e+00
1.077290e+00
1.129905e+00
1.000009e+00
1.000065e+00
1.000387e+00
1.002092e+00
1.008986e+00
1.031897e+00
1.083605e+00
1.136049e+00
1.000065e+00
1.000390e+00
1.002109e+00
1.009054e+00
1.032112e+00
1.084036e+00
1.136341e+00
1.000065e+00
1.000387e+00
1.002092e+00
1.008986e+00
1.031897e+00
1.083605e+00
1.136049e+00
1.000058e+00
1.000346e+00
1.001874e+00
1.008091e+00
1.029013e+00
1.077290e+00
1.129905e+00
1.000008e+00
1.000058e+00
1.000350e+00
1.001918e+00
1.008343e+00
1.030130e+00
1.080321e+00
1.133709e+00
1.000009e+00
1.000065e+00
1.000392e+00
1.002141e+00
1.009269e+00
1.033140e+00
1.086925e+00
1.140127e+00
1.000066e+00
1.000396e+00
1.002159e+00
1.009340e+00
1.033365e+00
1.087377e+00
1.140431e+00
1.000065e+00
1.000392e+00
1.002141e+00
1.009269e+00
1.033140e+00
1.086925e+00
1.140127e+00
1.000058e+00
1.000350e+00
1.001918e+00
1.008343e+00
1.030130e+00
1.080321e+00
1.133709e+00
1.000007e+00
1.000054e+00
1.000330e+00
1.001830e+00
1.008046e+00
1.029415e+00
1.079211e+00
1.133329e+00
1.000008e+00
1.000061e+00
1.000370e+00
1.002044e+00
1.008939e+00
1.032357e+00
1.085740e+00
1.139757e+00
1.000061e+00
1.000373e+00
1.002061e+00
1.009007e+00
1.032577e+00
1.086189e+00
1.140065e+00
1.000061e+00
1.000370e+00
1.002044e+00
1.008939e+00
1.032357e+00
1.085740e+00
1.139757e+00
1.000054e+00
1.000330e+00
1.001830e+00
1.008046e+00
1.029415e+00
1.079211e+00
1.133329e+00
1.000007e+00
1.000050e+00
1.000311e+00
1.001741e+00
1.007729e+00
1.028605e+00
1.077842e+00
1.132674e+00
1.000008e+00
1.000057e+00
1.000348e+00
1.001944e+00
1.008587e+00
1.031468e+00
1.084270e+00
1.139093e+00
1.000057e+00
1.000351e+00
1.001959e+00
1.008653e+00
1.031682e+00
1.084713e+00
1.139404e+00
1.000057e+00
1.000348e+00
1.001944e+00
1.008587e+00
1.031468e+00
1.084270e+00
1.139093e+00
1.000050e+00
1.000311e+00
1.001741e+00
1.007729e+00
1.028605e+00
1.077842e+00
1.132674e+00
1.000001e+00
1.000006e+00
1.000047e+00
1.000291e+00
1.001648e+00
1.007392e+00
1.027701e+00
1.076213e+00
1.131732e+00
1.000001e+00
1.000007e+00
1.000052e+00
1.000326e+00
1.001840e+00
1.008212e+00
1.030472e+00
1.082514e+00
1.138121e+00
1.000053e+00
1.000329e+00
1.001855e+00
1.008275e+00
1.030680e+00
1.082950e+00
1.138435e+00
1.000052e+00
1.000326e+00
1.001840e+00
1.008212e+00
1.030472e+00
1.082514e+00
1.138121e+00
1.000047e+00
1.000291e+00
1.001648e+00
1.007392e+00
1.027701e+00
1.076213e+00
1.131732e+00
1.000001e+00
1.000005e+00
1.000040e+00
1.000253e+00
1.001454e+00
1.006608e+00
1.025223e+00
1.070840e+00
1.126728e+00
1.000001e+00
1.000006e+00
1.000045e+00
1.000284e+00
1.001623e+00
1.007338e+00
1.027737e+00
1.076682e+00
1.132829e+00
1.000046e+00
1.000286e+00
1.001636e+00
1.007394e+00
1.027925e+00
1.077088e+00
1.133137e+00
1.000045e+00
1.000284e+00
1.001623e+00
1.007338e+00
1.027737e+00
1.076682e+00
1.132829e+00
1.000040e+00
1.000253e+00
1.001454e+00
1.006608e+00
1.025223e+00
1.070840e+00
1.126728e+00
1.000000e+00
1.000000e+00
1.000000e+00
1.000000e+00
1.000000e+00
1.000000e+00
1.000000e+00
1.000000e+00
1.000000e+00
1.000000e+00
1.000000e+00
1.000000e+00
1.000000e+00
1.000000e+00
1.000000e+00
1.000000e+00
1.000000e+00
1.000000e+00
1.000000e+00
1.000000e+00
1.000000e+00
1.000000e+00
1.000000e+00
1.000000e+00
1.000000e+00
1.000000e+00
1.000000e+00
1.000000e+00
1.000000e+00
1.000000e+00
1.000000e+00
1.000000e+00
1.000000e+00
1.000000e+00
1.000000e+00
1.000000e+00
1.000000e+00
1.000000e+00
1.000000e+00
1.000000e+00
1.000000e+00
1.000000e+00
1.000000e+00
1.000000e+00
1.000000e+00
1.000000e+00
1.000000e+00
1.000000e+00
1.000000e+00
1.000000e+00
1.000000e+00
1.000000e+00
1.000000e+00
1.000000e+00
1.000000e+00
1.000000e+00
1.000000e+00
1.000000e+00
1.000000e+00
1.000000e+00
1.000000e+00
1.000000e+00
1.000000e+00
1.000000e+00
1.000000e+00
1.000000e+00
1.000000e+00
1.000000e+00
1.000000e+00
1.000000e+00
1.000000e+00
1.000000e+00
1.000000e+00
1.000000e+00
1.000000e+00
1.000000e+00
1.000000e+00
1.000000e+00
1.000000e+00
1.000000e+00
1.000000e+00
1.000000e+00
1.000000e+00
1.000000e+00
1.000000e+00
1.000000e+00
1.000000e+00
1.000000e+00
1.000000e+00
1.000000e+00
1.000000e+00
1.000000e+00
1.000000e+00
1.000000e+00
1.000000e+00
1.000000e+00
1.000000e+00
1.000000e+00
1.000000e+00
1.000000e+00
1.000000e+00
1.000000e+00
1.000000e+00
1.000000e+00
1.000000e+00
1.000000e+00
1.000000e+00
1.000000e+00
1.000000e+00
1.000000e+00
1.000000e+00
1.000000e+00
1.000000e+00
1.000000e+00
1.000000e+00
1.000000e+00
1.000000e+00
1.000000e+00
1.000000e+00
1.000000e+00
1.000000e+00
1.000000e+00
1.000000e+00
1.000000e+00
1.000000e+00
1.000000e+00
1.000000e+00
1.000000e+00
1.000000e+00
1.000000e+00
1.000000e+00
1.000000e+00
1.000000e+00
1.000000e+00
1.000000e+00
1.000000e+00
1.000000e+00
1.000000e+00
1.000000e+00
1.000000e+00
1.000000e+00
1.000000e+00
1.000000e+00
1.000000e+00
1.000000e+00
1.000000e+00
1.000000e+00
1.000000e+00
1.000000e+00
1.000000e+00
1.000000e+00
1.000000e+00
1.000000e+00
1.000000e+00
1.000000e+00
1.000000e+00
1.000000e+00
1.000000e+00
1.000000e+00
1.000000e+00
1.000000e+00
1.000000e+00
1.000000e+00
1.000000e+00
1.000000e+00
1.000000e+00
1.000000e+00
1.000000e+00
1.000000e+00
1.000000e+00
1.000000e+00
1.000000e+00
1.000000e+00
1.000000e+00
1.000000e+00
1.000000e+00
1.000000e+00
1.000000e+00
1.000000e+00
1.000000e+00
1.000000e+00
1.000000e+00
1.000000e+00
1.000000e+00
1.000000e+00
1.000000e+00
1.000000e+00
1.000000e+00
1.000000e+00
1.000000e+00
1.000000e+00
1.000000e+00
1.000000e+00
1.000000e+00
1.000000e+00
1.000000e+00
1.000000e+00
1.000000e+00
1.000000e+00
1.000000e+00
1.000000e+00
1.000000e+00
1.000000e+00
1.000000e+00
1.000000e+00
1.000000e+00
1.000000e+00
1.000000e+00
1.000000e+00
1.000000e+00
1.000000e+00
1.000000e+00
1.000000e+00
1.000000e+00
1.000000e+00
1.000000e+00
1.000000e+00
1.000000e+00
1.000000e+00
1.000000e+00
1.000000e+00
1.000000e+00
1.000000e+00
1.000000e+00
1.000000e+00
1.000000e+00
1.000000e+00
1.000000e+00
1.000000e+00
1.000000e+00
1.000000e+00
1.000000e+00
1.000000e+00
1.000000e+00
1.000000e+00
1.000000e+00
1.000000e+00
1.000000e+00
1.000000e+00
1.000000e+00
1.000000e+00
1.000000e+00
1.000000e+00
1.000000e+00
1.000000e+00
1.000000e+00
1.000000e+00
1.000000e+00
1.000000e+00
1.000000e+00
1.000000e+00
1.000000e+00
1.000000e+00
1.000000e+00
1.000000e+00
1.000000e+00
1.000000e+00
1.000000e+00
1.000000e+00
1.000000e+00
1.000000e+00
1.000000e+00
1.000000e+00
1.000000e+00
1.000000e+00
1.000000e+00
1.000000e+00
1.000000e+00
1.000000e+00
1.000000e+00
1.000000e+00
1.000000e+00
1.000000e+00
1.000000e+00
1.000000e+00
1.000000e+00
1.000000e+00
1.000000e+00
1.000000e+00
1.000000e+00
1.000000e+00
1.000000e+00
1.000000e+00
1.000000e+00
1.000000e+00
1.000000e+00
1.000000e+00
1.000000e+00
1.000000e+00
1.000000e+00
1.000000e+00
1.000000e+00
1.000000e+00
1.000000e+00
1.000000e+00
1.000000e+00
1.000000e+00
1.000000e+00
1.000000e+00
1.000000e+00
1.000000e+00
1.000000e+00
1.000000e+00
1.000000e+00
1.000000e+00
1.000000e+00
1.000000e+00
1.000000e+00
1.000000e+00
1.000000e+00
1.000000e+00
1.000000e+00
1.000000e+00
1.000000e+00
1.000000e+00
1.000000e+00
1.000000e+00
1.000000e+00
1.000000e+00
1.000000e+00
1.000000e+00
1.000000e+00
1.000000e+00
1.000000e+00
1.000000e+00
1.000000e+00
1.000000e+00
1.000000e+00
1.000000e+00
1.000000e+00
1.000000e+00
1.000000e+00
1.000000e+00
1.000000e+00
1.000000e+00
1.000000e+00
1.000000e+00
1.000000e+00
1.000000e+00
1.000000e+00
1.000000e+00
1.000000e+00
1.000000e+00
1.000000e+00
1.000000e+00
1.000000e+00
1.000000e+00
1.000000e+00
1.000000e+00
1.000000e+00
1.000000e+00
1.000000e+00
1.000000e+00
1.000000e+00
1.000000e+00
1.000000e+00
1.000000e+00
1.000000e+00
1.000000e+00
1.000000e+00
1.000000e+00
1.000000e+00
1.000000e+00
1.000000e+00
1.000000e+00
1.000000e+00
1.000000e+00
1.000000e+00
1.000000e+00
1.000000e+00
1.000000e+00
1.000000e+00
1.000000e+00
1.000000e+00
1.000000e+00
1.000000e+00
1.000000e+00
1.000000e+00
1.000000e+00
1.000000e+00
1.000000e+00
1.000000e+00
1.000000e+00
1.000000e+00
1.000000e+00
1.000000e+00
1.000000e+00
1.000000e+00
1.000000e+00
1.000000e+00
1.000000e+00
1.000000e+00
1.000000e+00
1.000000e+00
1.000000e+00
1.000000e+00
1.000000e+00
1.000000e+00
1.000000e+00
1.000000e+00
1.000000e+00
1.000000e+00
1.000000e+00
1.000000e+00
1.000000e+00
1.000000e+00
1.000000e+00
1.000000e+00
1.000000e+00
1.000000e+00
1.000000e+00
1.000000e+00
1.000000e+00
1.000000e+00
1.000000e+00
1.000000e+00
1.000000e+00
1.000000e+00
1.000000e+00
1.000000e+00
1.000000e+00
1.000000e+00
1.000000e+00
1.000000e+00
1.000000e+00
1.000000e+00
1.000000e+00
1.000000e+00
1.000000e+00
1.000000e+00
1.000000e+00
1.000000e+00
1.000000e+00
1.000000e+00
1.000000e+00
1.000000e+00
1.000000e+00
1.000000e+00
VECTORS Momentum double
2.237246e-13 3.423998e-14 -3.621122e-15
3.169714e-12 2.809586e-13 6.434424e-14
4.117256e-11 3.398008e-12 8.813979e-13
4.946834e-10 3.783285e-11 1.132239e-11
5.577503e-09 3.938007e-10 1.344578e-10
5.731661e-08 3.710974e-09 1.496132e-09
5.501522e-07 3.252385e-08 1.513447e-08
4.699532e-06 2.517536e-07 1.426537e-07
2.597043e-13 2.730073e-14 -2.296227e-15
3.607983e-12 3.194621e-13 3.170548e-14
4.677916e-11 3.860163e-12 4.387572e-13
5.616386e-10 4.294924e-11 5.639038e-12
6.327261e-09 4.467175e-10 6.695871e-11
6.496058e-08 4.205738e-09 7.447908e-10
6.228481e-07 3.682089e-08 7.530969e-09
5.313945e-06 2.846750e-07 7.094088e-08
3.640964e-12 3.223999e-13 -1.170555e-16
4.720391e-11 3.895749e-12 -1.346164e-18
5.667183e-10 4.333877e-11 -9.488387e-23
6.384124e-09 4.507305e-10 -2.210309e-20
6.554031e-08 4.243296e-09 3.285608e-22
6.283578e-07 3.714699e-08 4.411640e-20
5.360475e-06 2.871729e-07 1.161056e-21
4.247625e-05 2.051062e-06 2.832088e-20
3.609217e-12 3.194766e-13 -3.217076e-14
4.677929e-11 3.860152e-12 -4.388430e-13
5.616386e-10 4.294924e-11 -5.639038e-12
6.327261e-09 4.467175e-10 -6.695871e-11
6.496058e-08 4.205738e-09 -7.447908e-10
6.228481e-07 3.682089e-08 -7.530969e-09
5.313945e-06 2.846750e-07 -7.094088e-08
4.211253e-05 2.033436e-06 -5.922725e-07
3.177274e-12 2.809260e-13 -6.487050e-14
4.117296e-11 3.397509e-12 -8.815550e-13
4.946835e-10 3.783285e-11 -1.132239e-11
5.577503e-09 3.938007e-10 -1.344578e-10
5.731661e-08 3.710974e-09 -1.496132e-09
5.501522e-07 3.252385e-08 -1.513447e-08
4.699532e-06 2.517536e-07 -1.426537e-07
3.729835e-05 1.800803e-06 -1.191896e-06
1.799758e-13 2.490201e-13 -2.788930e-14
2.910095e-12 2.671792e-13 5.807028e-14
3.841713e-11 3.006817e-12 8.211842e-13
4.666569e-10 3.348810e-11 1.067462e-11
5.320467e-09 3.492366e-10 1.282059e-10
5.526188e-08 3.279302e-09 1.442615e-09
5.363086e-07 2.863719e-08 1.475006e-08
4.628742e-06 2.183917e-07 1.405801e-07
2.414050e-13 4.641906e-14 -1.796581e-14
3.326187e-12 2.800701e-13 2.860190e-14
4.364819e-11 3.409183e-12 4.092388e-13
5.298343e-10 3.801674e-11 5.317460e-12
6.035905e-09 3.961506e-10 6.384649e-11
6.263481e-08 3.716288e-09 7.181981e-10
6.072123e-07 3.241784e-08 7.340315e-09
5.234313e-06 2.469155e-07 6.991707e-08
3.359549e-12 2.822134e-13 -3.339875e-16
4.404552e-11 3.439765e-12 -3.765460e-17
5.346260e-10 3.836169e-11 -1.214469e-18
6.090182e-09 3.997102e-10 -1.101445e-19
6.319424e-08 3.749466e-09 -4.621840e-20
6.125890e-07 3.270476e-08 -6.561727e-20
5.280203e-06 2.490797e-07 -6.346988e-20
4.229674e-05 1.754412e-06 1.838178e-20
3.332424e-12 2.723779e-13 -3.038433e-14
4.364851e-11 3.407397e-12 -4.099211e-13
5.298343e-10 3.801663e-11 -5.317482e-12
6.035905e-09 3.961506e-10 -6.384650e-11
6.263481e-08 3.716288e-09 -7.181981e-10
6.072123e-07 3.241784e-08 -7.340315e-09
5.234313e-06 2.469155e-07 -6.991707e-08
4.193398e-05 1.739368e-06 -5.898299e-07
2.944264e-12 2.280109e-13 -6.079867e-14
3.841871e-11 2.994712e-12 -8.224285e-13
4.666576e-10 3.348737e-11 -1.067466e-11
5.320467e-09 3.492364e-10 -1.282059e-10
5.526188e-08 3.279302e-09 -1.442615e-09
5.363086e-07 2.863719e-08 -1.475006e-08
4.628742e-06 2.183917e-07 -1.405801e-07
3.713634e-05 1.540714e-06 -1.186819e-06
-3.046733e-13 -2.667724e-13 -7.054648e-13
2.136191e-12 1.513392e-13 -2.441829e-14
3.323612e-11 2.472034e-12 6.917900e-13
4.085267e-10 2.775935e-11 9.343204e-12
4.708797e-09 2.902159e-10 1.134362e-10
4.943659e-08 2.718412e-09 1.290347e-09
4.850362e-07 2.367919e-08 1.333513e-08
4.230920e-06 1.781527e-07 1.284838e-07
4.145957e-13 1.154058e-14 -4.200485e-13
2.812083e-12 2.275204e-13 -1.545555e-14
3.780204e-11 2.817184e-12 3.431368e-13
4.638443e-10 3.151404e-11 4.655458e-12
5.341968e-09 3.291754e-10 5.649139e-11
5.603210e-08 3.080285e-09 6.423907e-10
5.491587e-07 2.680073e-08 6.636157e-09
4.784409e-06 2.013682e-07 6.390073e-08
2.883355e-12 2.345637e-13 -1.398376e-14
3.814849e-11 2.843733e-12 -3.033325e-15
4.680407e-10 3.180006e-11 -1.803404e-16
5.390003e-09 3.321316e-10 -7.547108e-18
5.653255e-08 3.107748e-09 -1.021833e-18
5.540213e-07 2.703746e-08 -9.129169e-19
4.826355e-06 2.031278e-07 -1.553221e-18
3.908663e-05 1.412596e-06 5.149301e-20
2.964161e-12 2.499753e-13 -5.929039e-14
3.781539e-11 2.820579e-12 -3.644217e-13
4.638473e-10 3.151444e-11 -4.656816e-12
5.341968e-09 3.291754e-10 -5.649171e-11
5.603210e-08 3.080285e-09 -6.423907e-10
5.491587e-07 2.680073e-08 -6.636157e-09
4.784409e-06 2.013682e-07 -6.390073e-08
3.875141e-05 1.400541e-06 -5.447909e-07
2.884996e-12 2.595118e-13 -9.150264e-14
3.330391e-11 2.488843e-12 -7.268370e-13
4.085464e-10 2.776191e-11 -9.345468e-12
4.708798e-09 2.902161e-10 -1.134368e-10
4.943659e-08 2.718412e-09 -1.290347e-09
4.850362e-07 2.367919e-08 -1.333513e-08
4.230920e-06 1.781527e-07 -1.284838e-07
3.431823e-05 1.241077e-06 -1.096202e-06
5.923438e-13 -1.849710e-13 6.616286e-13
2.493846e-12 1.837325e-13 9.714468e-14
2.878080e-11 2.132793e-12 6.292325e-13
3.568763e-10 2.414960e-11 8.162480e-12
4.157410e-09 2.549277e-10 1.001364e-10
4.411085e-08 2.409609e-09 1.151224e-09
4.374369e-07 2.118075e-08 1.202306e-08
3.855819e-06 1.605498e-07 1.170817e-07
-3.316076e-14 -3.128599e-14 3.987772e-13
2.479730e-12 2.011013e-13 5.046040e-14
3.267097e-11 2.426905e-12 3.151172e-13
4.051813e-10 2.741426e-11 4.068158e-12
4.716405e-09 2.891428e-10 4.986772e-11
4.999539e-08 2.730299e-09 5.731257e-10
4.952610e-07 2.397199e-08 5.983151e-09
4.360169e-06 1.814605e-07 5.822918e-08
2.455731e-12 1.994202e-13 1.274236e-14
3.296933e-11 2.449658e-12 3.596098e-15
4.088445e-10 2.766111e-11 2.574583e-16
4.758813e-09 2.917384e-10 2.457113e-17
5.044188e-08 2.754635e-09 9.576801e-19
4.996459e-07 2.418365e-08 7.183438e-19
4.398390e-06 1.830451e-07 -4.773446e-19
3.600544e-05 1.282617e-06 -7.826872e-19
2.335057e-12 1.959052e-13 1.112464e-14
3.265902e-11 2.427660e-12 -2.974670e-13
4.051779e-10 2.741408e-11 -4.066591e-12
4.716405e-09 2.891428e-10 -4.986754e-11
4.999539e-08 2.730299e-09 -5.731257e-10
4.952610e-07 2.397199e-08 -5.983151e-09
4.360169e-06 1.814605e-07 -5.822918e-08
3.569670e-05 1.271683e-06 -5.016079e-07
1.787146e-12 1.605714e-13 -3.958463e-15
2.872599e-11 2.140477e-12 -6.023209e-13
3.568601e-10 2.414915e-11 -8.159957e-12
4.157409e-09 2.549277e-10 -1.001362e-10
4.411085e-08 2.409609e-09 -1.151224e-09
4.374369e-07 2.118075e-08 -1.202306e-08
3.855819e-06 1.605498e-07 -1.170817e-07
3.161365e-05 1.126993e-06 -1.009329e-06
1.461149e-13 2.338758e-13 2.532359e-14
1.839348e-12 1.585224e-13 4.041710e-14
2.476654e-11 1.767421e-12 5.290292e-13
3.105887e-10 1.996735e-11 7.102277e-12
3.656975e-09 2.111017e-10 8.804904e-11
3.921107e-08 1.988171e-09 1.023096e-09
3.930226e-07 1.739190e-08 1.079714e-08
1.375184e-13 3.799557e-14 1.476546e-14
2.078144e-12 1.611580e-13 2.031367e-14
2.813676e-11 2.002604e-12 2.634620e-13
3.526301e-10 2.266445e-11 3.538038e-12
4.148630e-09 2.394098e-10 4.384700e-11
4.444124e-08 2.252436e-09 5.093285e-10
4.449668e-07 1.967965e-08 5.372984e-09
2.095787e-12 1.621190e-13 6.664796e-16
2.839266e-11 2.020170e-12 5.808997e-17
3.558183e-10 2.286806e-11 6.260716e-18
4.185926e-09 2.415573e-10 2.207883e-19
4.483806e-08 2.272482e-09 2.172522e-20
4.489055e-07 1.985300e-08 1.290478e-22
3.993055e-06 1.476179e-07 2.340406e-21
3.304049e-05 1.013951e-06 1.080168e-21
2.073130e-12 1.531395e-13 -1.619189e-14
2.813613e-11 2.000401e-12 -2.627236e-13
3.526300e-10 2.266429e-11 -3.537824e-12
4.148630e-09 2.394098e-10 -4.384698e-11
4.444124e-08 2.252436e-09 -5.093285e-10
4.449668e-07 1.967965e-08 -5.372984e-09
3.958367e-06 1.463447e-07 -5.284871e-08
3.275727e-05 1.005361e-06 -4.599675e-07
1.813531e-12 1.214996e-13 -3.380304e-14
2.476297e-11 1.757082e-12 -5.277256e-13
3.105881e-10 1.996640e-11 -7.101876e-12
3.656975e-09 2.111016e-10 -8.804901e-11
3.921107e-08 1.988171e-09 -1.023096e-09
3.930226e-07 1.739190e-08 -1.079714e-08
3.500586e-06 1.295244e-07 -1.062657e-07
2.901142e-05 8.914491e-07 -9.255701e-07
9.951001e-14 1.649535e-14 5.073398e-15
1.437197e-12 1.027874e-13 2.956221e-14
1.968152e-11 1.252462e-12 4.201658e-13
2.495907e-10 1.410541e-11 5.699282e-12
2.972577e-09 1.480497e-10 7.145296e-11
3.222956e-08 1.366293e-09 8.397126e-10
3.268375e-07 1.168989e-08 8.959765e-09
1.095833e-13 9.080748e-15 2.908564e-15
1.632074e-12 1.149940e-13 1.483515e-14