# vtk DataFile Version 2.0
Simplicial Mesh Example
ASCII
DATASET UNSTRUCTURED_GRID
POINTS 729 double
2.500000e+00 7.500000e+00 5.000000e+00
1.250000e+00 7.500000e+00 3.750000e+00
2.500000e+00 7.500000e+00 3.750000e+00
0.000000e+00 7.500000e+00 3.750000e+00
1.250000e+00 7.500000e+00 2.500000e+00
2.500000e+00 7.500000e+00 2.500000e+00
0.000000e+00 7.500000e+00 2.500000e+00
1.250000e+00 7.500000e+00 1.250000e+00
2.500000e+00 7.500000e+00 1.250000e+00
0.000000e+00 7.500000e+00 1.250000e+00
1.250000e+00 7.500000e+00 0.000000e+00
2.500000e+00 7.500000e+00 0.000000e+00
0.000000e+00 7.500000e+00 0.000000e+00
1.250000e+00 8.750000e+00 5.000000e+00
2.500000e+00 8.750000e+00 5.000000e+00
1.250000e+00 1.000000e+01 5.000000e+00
2.500000e+00 1.000000e+01 5.000000e+00
0.000000e+00 8.750000e+00 5.000000e+00
0.000000e+00 1.000000e+01 5.000000e+00
1.250000e+00 8.750000e+00 3.750000e+00
2.500000e+00 8.750000e+00 3.750000e+00
1.250000e+00 1.000000e+01 3.750000e+00
2.500000e+00 1.000000e+01 3.750000e+00
0.000000e+00 8.750000e+00 3.750000e+00
0.000000e+00 1.000000e+01 3.750000e+00
1.250000e+00 8.750000e+00 2.500000e+00
2.500000e+00 8.750000e+00 2.500000e+00
1.250000e+00 1.000000e+01 2.500000e+00
2.500000e+00 1.000000e+01 2.500000e+00
0.000000e+00 8.750000e+00 2.500000e+00
0.000000e+00 1.000000e+01 2.500000e+00
1.250000e+00 8.750000e+00 1.250000e+00
2.500000e+00 8.750000e+00 1.250000e+00
1.250000e+00 1.000000e+01 1.250000e+00
2.500000e+00 1.000000e+01 1.250000e+00
0.000000e+00 8.750000e+00 1.250000e+00
0.000000e+00 1.000000e+01 1.250000e+00
1.250000e+00 8.750000e+00 0.000000e+00
2.500000e+00 8.750000e+00 0.000000e+00
1.250000e+00 1.000000e+01 0.000000e+00
2.500000e+00 1.000000e+01 0.000000e+00
0.000000e+00 8.750000e+00 0.000000e+00
0.000000e+00 1.000000e+01 0.000000e+00
5.000000e+00 5.000000e+00 1.000000e+01
5.000000e+00 5.000000e+00 8.750000e+00
5.000000e+00 5.000000e+00 7.500000e+00
5.000000e+00 5.000000e+00 6.250000e+00
5.000000e+00 6.250000e+00 1.000000e+01
5.000000e+00 6.250000e+00 8.750000e+00
5.000000e+00 6.250000e+00 7.500000e+00
5.000000e+00 6.250000e+00 6.250000e+00
5.000000e+00 7.500000e+00 6.250000e+00
5.000000e+00 6.250000e+00 5.000000e+00
3.750000e+00 7.500000e+00 5.000000e+00
5.000000e+00 7.500000e+00 5.000000e+00
5.000000e+00 8.750000e+00 6.250000e+00
5.000000e+00 1.000000e+01 6.250000e+00
3.750000e+00 8.750000e+00 5.000000e+00
5.000000e+00 8.750000e+00 5.000000e+00
3.750000e+00 1.000000e+01 5.000000e+00
5.000000e+00 1.000000e+01 5.000000e+00
1.250000e+00 6.250000e+00 8.750000e+00
1.250000e+00 6.250000e+00 1.000000e+01
2.500000e+00 6.250000e+00 1.000000e+01
2.500000e+00 6.250000e+00 8.750000e+00
1.250000e+00 7.500000e+00 8.750000e+00
1.250000e+00 7.500000e+00 1.000000e+01
2.500000e+00 7.500000e+00 1.000000e+01
2.500000e+00 7.500000e+00 8.750000e+00
0.000000e+00 6.250000e+00 8.750000e+00
0.000000e+00 6.250000e+00 1.000000e+01
0.000000e+00 7.500000e+00 8.750000e+00
0.000000e+00 7.500000e+00 1.000000e+01
1.250000e+00 6.250000e+00 7.500000e+00
2.500000e+00 6.250000e+00 7.500000e+00
1.250000e+00 7.500000e+00 7.500000e+00
2.500000e+00 7.500000e+00 7.500000e+00
0.000000e+00 6.250000e+00 7.500000e+00
0.000000e+00 7.500000e+00 7.500000e+00
1.250000e+00 7.500000e+00 6.250000e+00
2.500000e+00 7.500000e+00 6.250000e+00
0.000000e+00 7.500000e+00 6.250000e+00
1.250000e+00 7.500000e+00 5.000000e+00
0.000000e+00 7.500000e+00 5.000000e+00
1.250000e+00 8.750000e+00 8.750000e+00
1.250000e+00 8.750000e+00 1.000000e+01
2.500000e+00 8.750000e+00 1.000000e+01
2.500000e+00 8.750000e+00 8.750000e+00
1.250000e+00 1.000000e+01 8.750000e+00
1.250000e+00 1.000000e+01 1.000000e+01
2.500000e+00 1.000000e+01 1.000000e+01
2.500000e+00 1.000000e+01 8.750000e+00
0.000000e+00 8.750000e+00 8.750000e+00
0.000000e+00 8.750000e+00 1.000000e+01
0.000000e+00 1.000000e+01 8.750000e+00
0.000000e+00 1.000000e+01 1.000000e+01
1.250000e+00 8.750000e+00 7.500000e+00
2.500000e+00 8.750000e+00 7.500000e+00
1.250000e+00 1.000000e+01 7.500000e+00
2.500000e+00 1.000000e+01 7.500000e+00
0.000000e+00 8.750000e+00 7.500000e+00
0.000000e+00 1.000000e+01 7.500000e+00
1.250000e+00 8.750000e+00 6.250000e+00
2.500000e+00 8.750000e+00 6.250000e+00
1.250000e+00 1.000000e+01 6.250000e+00
2.500000e+00 1.000000e+01 6.250000e+00
0.000000e+00 8.750000e+00 6.250000e+00
0.000000e+00 1.000000e+01 6.250000e+00
3.750000e+00 6.250000e+00 8.750000e+00
3.750000e+00 6.250000e+00 1.000000e+01
3.750000e+00 7.500000e+00 8.750000e+00
3.750000e+00 7.500000e+00 1.000000e+01
3.750000e+00 6.250000e+00 7.500000e+00
3.750000e+00 7.500000e+00 7.500000e+00
3.750000e+00 7.500000e+00 6.250000e+00
3.750000e+00 8.750000e+00 8.750000e+00
3.750000e+00 8.750000e+00 1.000000e+01
3.750000e+00 1.000000e+01 8.750000e+00
3.750000e+00 1.000000e+01 1.000000e+01
3.750000e+00 8.750000e+00 7.500000e+00
3.750000e+00 1.000000e+01 7.500000e+00
3.750000e+00 8.750000e+00 6.250000e+00
3.750000e+00 1.000000e+01 6.250000e+00
1.250000e+00 1.250000e+00 8.750000e+00
1.250000e+00 1.250000e+00 1.000000e+01
2.500000e+00 1.250000e+00 1.000000e+01
2.500000e+00 1.250000e+00 8.750000e+00
1.250000e+00 2.500000e+00 8.750000e+00
1.250000e+00 2.500000e+00 1.000000e+01
2.500000e+00 2.500000e+00 1.000000e+01
2.500000e+00 2.500000e+00 8.750000e+00
0.000000e+00 1.250000e+00 8.750000e+00
0.000000e+00 1.250000e+00 1.000000e+01
0.000000e+00 2.500000e+00 8.750000e+00
0.000000e+00 2.500000e+00 1.000000e+01
1.250000e+00 0.000000e+00 8.750000e+00
1.250000e+00 0.000000e+00 1.000000e+01
2.500000e+00 0.000000e+00 1.000000e+01
2.500000e+00 0.000000e+00 8.750000e+00
0.000000e+00 0.000000e+00 8.750000e+00
0.000000e+00 0.000000e+00 1.000000e+01
1.250000e+00 3.750000e+00 8.750000e+00
1.250000e+00 3.750000e+00 1.000000e+01
2.500000e+00 3.750000e+00 1.000000e+01
2.500000e+00 3.750000e+00 8.750000e+00
1.250000e+00 5.000000e+00 8.750000e+00
1.250000e+00 5.000000e+00 1.000000e+01
2.500000e+00 5.000000e+00 1.000000e+01
2.500000e+00 5.000000e+00 8.750000e+00
0.000000e+00 3.750000e+00 8.750000e+00
0.000000e+00 3.750000e+00 1.000000e+01
0.000000e+00 5.000000e+00 8.750000e+00
0.000000e+00 5.000000e+00 1.000000e+01
3.750000e+00 1.250000e+00 8.750000e+00
3.750000e+00 1.250000e+00 1.000000e+01
5.000000e+00 1.250000e+00 1.000000e+01
5.000000e+00 1.250000e+00 8.750000e+00
3.750000e+00 2.500000e+00 8.750000e+00
3.750000e+00 2.500000e+00 1.000000e+01
5.000000e+00 2.500000e+00 1.000000e+01
5.000000e+00 2.500000e+00 8.750000e+00
3.750000e+00 0.000000e+00 8.750000e+00
3.750000e+00 0.000000e+00 1.000000e+01
5.000000e+00 0.000000e+00 1.000000e+01
5.000000e+00 0.000000e+00 8.750000e+00
5.000000e+00 1.250000e+00 7.500000e+00
5.000000e+00 2.500000e+00 7.500000e+00
5.000000e+00 0.000000e+00 7.500000e+00
3.750000e+00 3.750000e+00 8.750000e+00
3.750000e+00 3.750000e+00 1.000000e+01
5.000000e+00 3.750000e+00 1.000000e+01
5.000000e+00 3.750000e+00 8.750000e+00
3.750000e+00 5.000000e+00 8.750000e+00
3.750000e+00 5.000000e+00 1.000000e+01
5.000000e+00 3.750000e+00 7.500000e+00
1.250000e+00 1.250000e+00 7.500000e+00
2.500000e+00 1.250000e+00 7.500000e+00
1.250000e+00 2.500000e+00 7.500000e+00
2.500000e+00 2.500000e+00 7.500000e+00
0.000000e+00 1.250000e+00 7.500000e+00
0.000000e+00 2.500000e+00 7.500000e+00
1.250000e+00 0.000000e+00 7.500000e+00
2.500000e+00 0.000000e+00 7.500000e+00
0.000000e+00 0.000000e+00 7.500000e+00
1.250000e+00 1.250000e+00 6.250000e+00
2.500000e+00 1.250000e+00 6.250000e+00
1.250000e+00 2.500000e+00 6.250000e+00
2.500000e+00 2.500000e+00 6.250000e+00
0.000000e+00 1.250000e+00 6.250000e+00
0.000000e+00 2.500000e+00 6.250000e+00
1.250000e+00 0.000000e+00 6.250000e+00
2.500000e+00 0.000000e+00 6.250000e+00
0.000000e+00 0.000000e+00 6.250000e+00
1.250000e+00 1.250000e+00 5.000000e+00
2.500000e+00 1.250000e+00 5.000000e+00
1.250000e+00 2.500000e+00 5.000000e+00
2.500000e+00 2.500000e+00 5.000000e+00
0.000000e+00 1.250000e+00 5.000000e+00
0.000000e+00 2.500000e+00 5.000000e+00
1.250000e+00 0.000000e+00 5.000000e+00
2.500000e+00 0.000000e+00 5.000000e+00
0.000000e+00 0.000000e+00 5.000000e+00
1.250000e+00 3.750000e+00 7.500000e+00
2.500000e+00 3.750000e+00 7.500000e+00
1.250000e+00 5.000000e+00 7.500000e+00
2.500000e+00 5.000000e+00 7.500000e+00
0.000000e+00 3.750000e+00 7.500000e+00
0.000000e+00 5.000000e+00 7.500000e+00
1.250000e+00 3.750000e+00 6.250000e+00
2.500000e+00 3.750000e+00 6.250000e+00
1.250000e+00 5.000000e+00 6.250000e+00
2.500000e+00 5.000000e+00 6.250000e+00
0.000000e+00 3.750000e+00 6.250000e+00
0.000000e+00 5.000000e+00 6.250000e+00
1.250000e+00 3.750000e+00 5.000000e+00
2.500000e+00 3.750000e+00 5.000000e+00
1.250000e+00 5.000000e+00 5.000000e+00
2.500000e+00 5.000000e+00 5.000000e+00
0.000000e+00 3.750000e+00 5.000000e+00
0.000000e+00 5.000000e+00 5.000000e+00
1.250000e+00 6.250000e+00 6.250000e+00
2.500000e+00 6.250000e+00 6.250000e+00
0.000000e+00 6.250000e+00 6.250000e+00
1.250000e+00 6.250000e+00 5.000000e+00
2.500000e+00 6.250000e+00 5.000000e+00
0.000000e+00 6.250000e+00 5.000000e+00
3.750000e+00 1.250000e+00 7.500000e+00
3.750000e+00 2.500000e+00 7.500000e+00
3.750000e+00 0.000000e+00 7.500000e+00
3.750000e+00 3.750000e+00 7.500000e+00
3.750000e+00 5.000000e+00 7.500000e+00
3.750000e+00 5.000000e+00 6.250000e+00
3.750000e+00 6.250000e+00 6.250000e+00
3.750000e+00 6.250000e+00 5.000000e+00
1.250000e+00 1.250000e+00 3.750000e+00
2.500000e+00 1.250000e+00 3.750000e+00
1.250000e+00 2.500000e+00 3.750000e+00
2.500000e+00 2.500000e+00 3.750000e+00
0.000000e+00 1.250000e+00 3.750000e+00
0.000000e+00 2.500000e+00 3.750000e+00
1.250000e+00 0.000000e+00 3.750000e+00
2.500000e+00 0.000000e+00 3.750000e+00
0.000000e+00 0.000000e+00 3.750000e+00
1.250000e+00 1.250000e+00 2.500000e+00
2.500000e+00 1.250000e+00 2.500000e+00
1.250000e+00 2.500000e+00 2.500000e+00
2.500000e+00 2.500000e+00 2.500000e+00
0.000000e+00 1.250000e+00 2.500000e+00
0.000000e+00 2.500000e+00 2.500000e+00
1.250000e+00 0.000000e+00 2.500000e+00
2.500000e+00 0.000000e+00 2.500000e+00
0.000000e+00 0.000000e+00 2.500000e+00
1.250000e+00 1.250000e+00 1.250000e+00
[...]
CELL_DATA 512
SCALARS Density double 1
LOOKUP_TABLE default
1.198502e+00
1.198502e+00
1.198502e+00
1.198502e+00
1.198502e+00
1.198502e+00
1.198502e+00
1.198502e+00
1.198502e+00
1.180812e+00
1.180812e+00
1.189591e+00
1.189591e+00
1.180812e+00
1.180812e+00
1.189591e+00
1.189591e+00
1.180812e+00
1.180812e+00
1.189591e+00
1.189591e+00
1.180812e+00
1.180812e+00
1.189591e+00
1.189591e+00
1.180812e+00
1.180812e+00
1.189591e+00
1.189591e+00
1.198502e+00
1.198502e+00
1.198502e+00
1.198502e+00
1.198502e+00
1.180812e+00
1.189591e+00
1.180812e+00
1.189591e+00
1.180812e+00
1.189591e+00
1.180812e+00
1.189591e+00
1.180812e+00
1.189591e+00
1.216730e+00
1.216730e+00
1.216730e+00
1.216730e+00
1.198502e+00
1.207547e+00
1.198502e+00
1.207547e+00
1.198502e+00
1.207547e+00
1.198502e+00
1.207547e+00
1.198502e+00
1.207547e+00
1.180812e+00
1.189591e+00
1.180812e+00
1.189591e+00
1.180812e+00
1.189591e+00
1.216730e+00
1.216730e+00
1.216730e+00
1.216730e+00
1.198502e+00
1.207547e+00
1.198502e+00
1.207547e+00
1.198502e+00
1.207547e+00
1.198502e+00
1.207547e+00
1.198502e+00
1.207547e+00
1.180812e+00
1.189591e+00
1.180812e+00
1.189591e+00
1.180812e+00
1.189591e+00
1.198502e+00
1.198502e+00
1.207547e+00
1.207547e+00
1.198502e+00
1.198502e+00
1.207547e+00
1.207547e+00
1.198502e+00
1.198502e+00
1.207547e+00
1.207547e+00
1.198502e+00
1.180812e+00
1.180812e+00
1.189591e+00
1.189591e+00
1.180812e+00
1.180812e+00
1.189591e+00
1.189591e+00
1.180812e+00
1.180812e+00
1.189591e+00
1.189591e+00
1.198502e+00
1.207547e+00
1.198502e+00
1.207547e+00
1.198502e+00
1.207547e+00
1.180812e+00
1.180812e+00
1.189591e+00
1.189591e+00
1.180812e+00
1.180812e+00
1.189591e+00
1.189591e+00
1.180812e+00
1.189591e+00
1.235521e+00
1.235521e+00
1.245136e+00
1.245136e+00
1.235521e+00
1.235521e+00
1.245136e+00
1.245136e+00
1.216730e+00
1.216730e+00
1.226054e+00
1.226054e+00
1.216730e+00
1.216730e+00
1.226054e+00
1.226054e+00
1.235521e+00
1.235521e+00
1.245136e+00
1.245136e+00
1.235521e+00
1.235521e+00
1.245136e+00
1.245136e+00
1.235521e+00
1.245136e+00
1.216730e+00
1.226054e+00
1.226054e+00
1.216730e+00
1.226054e+00
1.226054e+00
1.226054e+00
1.235521e+00
1.245136e+00
1.235521e+00
1.245136e+00
1.235521e+00
1.245136e+00
1.226054e+00
1.226054e+00
1.226054e+00
1.235521e+00
1.235521e+00
1.245136e+00
1.245136e+00
1.235521e+00
1.235521e+00
1.245136e+00
1.245136e+00
1.235521e+00
1.235521e+00
1.245136e+00
1.245136e+00
1.216730e+00
1.216730e+00
1.226054e+00
1.226054e+00
1.216730e+00
1.216730e+00
1.226054e+00
1.226054e+00
1.216730e+00
1.216730e+00
1.226054e+00
1.226054e+00
1.207547e+00
1.207547e+00
1.207547e+00
1.207547e+00
1.235521e+00
1.245136e+00
1.235521e+00
1.245136e+00
1.235521e+00
1.245136e+00
1.216730e+00
1.226054e+00
1.216730e+00
1.226054e+00
1.216730e+00
1.226054e+00
1.207547e+00
1.207547e+00
1.207547e+00
1.235521e+00
1.235521e+00
1.245136e+00
1.245136e+00
1.235521e+00
1.235521e+00
1.245136e+00
1.245136e+00
1.235521e+00
1.235521e+00
1.245136e+00
1.245136e+00
1.216730e+00
1.216730e+00
1.226054e+00
1.226054e+00
1.216730e+00
1.216730e+00
1.226054e+00
1.226054e+00
1.216730e+00
1.216730e+00
1.226054e+00
1.226054e+00
1.207547e+00
1.207547e+00
1.207547e+00
1.207547e+00
1.207547e+00
1.207547e+00
1.235521e+00
1.245136e+00
1.235521e+00
1.245136e+00
1.235521e+00
1.245136e+00
1.216730e+00
1.226054e+00
1.216730e+00
1.226054e+00
1.216730e+00
1.226054e+00
1.207547e+00
1.207547e+00
1.198502e+00
1.198502e+00
1.198502e+00
1.180812e+00
1.180812e+00
1.189591e+00
1.189591e+00
1.180812e+00
1.180812e+00
1.189591e+00
1.189591e+00
1.180812e+00
1.189591e+00
1.180812e+00
1.189591e+00
1.180812e+00
1.189591e+00
1.198502e+00
1.198502e+00
1.198502e+00
1.198502e+00
1.198502e+00
1.198502e+00
1.180812e+00
1.180812e+00
1.189591e+00
1.189591e+00
1.180812e+00
1.180812e+00
1.189591e+00
1.189591e+00
1.180812e+00
1.180812e+00
1.189591e+00
1.189591e+00
1.180812e+00
1.180812e+00
1.189591e+00
1.189591e+00
1.180812e+00
1.180812e+00
1.189591e+00
1.189591e+00
1.235521e+00
1.245136e+00
1.235521e+00
1.245136e+00
1.235521e+00
1.245136e+00
1.216730e+00
1.226054e+00
1.216730e+00
1.226054e+00
1.216730e+00
1.226054e+00
1.207547e+00
1.207547e+00
1.235521e+00
1.235521e+00
1.245136e+00
1.245136e+00
1.235521e+00
1.235521e+00
1.245136e+00
1.245136e+00
1.235521e+00
1.235521e+00
1.245136e+00
1.245136e+00
1.216730e+00
1.216730e+00
1.226054e+00
1.226054e+00
1.216730e+00
1.216730e+00
1.226054e+00
1.226054e+00
1.216730e+00
1.216730e+00
1.226054e+00
1.226054e+00
1.207547e+00
1.207547e+00
1.207547e+00
1.207547e+00
1.207547e+00
1.207547e+00
1.235521e+00
1.245136e+00
1.235521e+00
1.245136e+00
1.245136e+00
1.216730e+00
1.226054e+00
1.216730e+00
1.226054e+00
1.207547e+00
1.198502e+00
1.207547e+00
1.198502e+00
1.207547e+00
1.235521e+00
1.235521e+00
1.245136e+00
1.245136e+00
1.235521e+00
1.235521e+00
1.245136e+00
1.245136e+00
1.216730e+00
1.216730e+00
1.226054e+00
1.226054e+00
1.216730e+00
1.216730e+00
1.226054e+00
1.226054e+00
1.198502e+00
1.198502e+00
1.207547e+00
1.207547e+00
1.198502e+00
1.198502e+00
1.207547e+00
1.207547e+00
1.198502e+00
1.198502e+00
1.198502e+00
1.198502e+00
1.198502e+00
1.180812e+00
1.189591e+00
1.180812e+00
1.189591e+00
1.180812e+00
1.189591e+00
1.198502e+00
1.198502e+00
1.198502e+00
1.198502e+00
1.198502e+00
1.198502e+00
1.180812e+00
1.180812e+00
1.189591e+00
1.189591e+00
1.180812e+00
1.180812e+00
1.189591e+00
1.189591e+00
1.180812e+00
1.180812e+00
1.189591e+00
1.189591e+00
1.198502e+00
1.198502e+00
1.198502e+00
1.198502e+00
1.180812e+00
1.180812e+00
1.189591e+00
1.189591e+00
1.180812e+00
1.180812e+00
1.189591e+00
1.189591e+00
1.180812e+00
1.180812e+00
1.189591e+00
1.189591e+00
1.235521e+00
1.245136e+00
1.235521e+00
1.245136e+00
1.235521e+00
1.245136e+00
1.235521e+00
1.245136e+00
1.235521e+00
1.245136e+00
1.226054e+00
1.216730e+00
1.226054e+00
1.216730e+00
1.226054e+00
1.216730e+00
1.226054e+00
1.216730e+00
1.226054e+00
1.207547e+00
1.207547e+00
1.207547e+00
1.235521e+00
1.245136e+00
1.235521e+00
1.245136e+00
1.235521e+00
1.245136e+00
1.235521e+00
1.245136e+00
1.235521e+00
1.245136e+00
1.226054e+00
1.216730e+00
1.226054e+00
1.216730e+00
1.226054e+00
1.216730e+00
1.226054e+00
1.216730e+00
1.226054e+00
1.207547e+00
1.207547e+00
1.207547e+00
1.235521e+00
1.235521e+00
1.245136e+00
1.235521e+00
1.245136e+00
1.216730e+00
1.226054e+00
1.216730e+00
1.226054e+00
1.216730e+00
1.226054e+00
1.207547e+00
1.207547e+00
1.207547e+00
1.235521e+00
1.235521e+00
1.245136e+00
1.245136e+00
1.235521e+00
1.235521e+00
1.245136e+00
1.245136e+00
1.235521e+00
1.235521e+00
1.245136e+00
1.245136e+00
1.216730e+00
1.216730e+00
1.226054e+00
1.226054e+00
1.216730e+00
1.216730e+00
1.226054e+00
1.226054e+00
1.216730e+00
1.216730e+00
1.226054e+00
1.226054e+00
1.207547e+00
1.207547e+00
1.207547e+00
1.207547e+00
1.207547e+00
1.207547e+00
VECTORS Momentum double
2.062500e-01 0.000000e+00 0.000000e+00
2.062500e-01 0.000000e+00 0.000000e+00
2.062500e-01 0.000000e+00 0.000000e+00
2.062500e-01 0.000000e+00 0.000000e+00
2.062500e-01 0.000000e+00 0.000000e+00
2.062500e-01 0.000000e+00 0.000000e+00
2.062500e-01 0.000000e+00 0.000000e+00
2.062500e-01 0.000000e+00 0.000000e+00
2.062500e-01 0.000000e+00 0.000000e+00
2.812500e-01 0.000000e+00 0.000000e+00
2.812500e-01 0.000000e+00 0.000000e+00
2.437500e-01 0.000000e+00 0.000000e+00
2.437500e-01 0.000000e+00 0.000000e+00
2.812500e-01 0.000000e+00 0.000000e+00
2.812500e-01 0.000000e+00 0.000000e+00
2.437500e-01 0.000000e+00 0.000000e+00
2.437500e-01 0.000000e+00 0.000000e+00
2.812500e-01 0.000000e+00 0.000000e+00
2.812500e-01 0.000000e+00 0.000000e+00
2.437500e-01 0.000000e+00 0.000000e+00
2.437500e-01 0.000000e+00 0.000000e+00
2.812500e-01 0.000000e+00 0.000000e+00
2.812500e-01 0.000000e+00 0.000000e+00
2.437500e-01 0.000000e+00 0.000000e+00
2.437500e-01 0.000000e+00 0.000000e+00
2.812500e-01 0.000000e+00 0.000000e+00
2.812500e-01 0.000000e+00 0.000000e+00
2.437500e-01 0.000000e+00 0.000000e+00
2.437500e-01 0.000000e+00 0.000000e+00
2.062500e-01 0.000000e+00 0.000000e+00
2.062500e-01 0.000000e+00 0.000000e+00
2.062500e-01 0.000000e+00 0.000000e+00
2.062500e-01 0.000000e+00 0.000000e+00
2.062500e-01 0.000000e+00 0.000000e+00
2.812500e-01 0.000000e+00 0.000000e+00
2.437500e-01 0.000000e+00 0.000000e+00
2.812500e-01 0.000000e+00 0.000000e+00
2.437500e-01 0.000000e+00 0.000000e+00
2.812500e-01 0.000000e+00 0.000000e+00
2.437500e-01 0.000000e+00 0.000000e+00
2.812500e-01 0.000000e+00 0.000000e+00
2.437500e-01 0.000000e+00 0.000000e+00
2.812500e-01 0.000000e+00 0.000000e+00
2.437500e-01 0.000000e+00 0.000000e+00
1.312500e-01 0.000000e+00 0.000000e+00
1.312500e-01 0.000000e+00 0.000000e+00
1.312500e-01 0.000000e+00 0.000000e+00
1.312500e-01 0.000000e+00 0.000000e+00
2.062500e-01 0.000000e+00 0.000000e+00
1.687500e-01 0.000000e+00 0.000000e+00
2.062500e-01 0.000000e+00 0.000000e+00
1.687500e-01 0.000000e+00 0.000000e+00
2.062500e-01 0.000000e+00 0.000000e+00
1.687500e-01 0.000000e+00 0.000000e+00
2.062500e-01 0.000000e+00 0.000000e+00
1.687500e-01 0.000000e+00 0.000000e+00
2.062500e-01 0.000000e+00 0.000000e+00
1.687500e-01 0.000000e+00 0.000000e+00
2.812500e-01 0.000000e+00 0.000000e+00
2.437500e-01 0.000000e+00 0.000000e+00
2.812500e-01 0.000000e+00 0.000000e+00
2.437500e-01 0.000000e+00 0.000000e+00
2.812500e-01 0.000000e+00 0.000000e+00
2.437500e-01 0.000000e+00 0.000000e+00
1.312500e-01 0.000000e+00 0.000000e+00
1.312500e-01 0.000000e+00 0.000000e+00
1.312500e-01 0.000000e+00 0.000000e+00
1.312500e-01 0.000000e+00 0.000000e+00
2.062500e-01 0.000000e+00 0.000000e+00
1.687500e-01 0.000000e+00 0.000000e+00
2.062500e-01 0.000000e+00 0.000000e+00
1.687500e-01 0.000000e+00 0.000000e+00
2.062500e-01 0.000000e+00 0.000000e+00
1.687500e-01 0.000000e+00 0.000000e+00
2.062500e-01 0.000000e+00 0.000000e+00
1.687500e-01 0.000000e+00 0.000000e+00
2.062500e-01 0.000000e+00 0.000000e+00
1.687500e-01 0.000000e+00 0.000000e+00
2.812500e-01 0.000000e+00 0.000000e+00
2.437500e-01 0.000000e+00 0.000000e+00
2.812500e-01 0.000000e+00 0.000000e+00
2.437500e-01 0.000000e+00 0.000000e+00
2.812500e-01 0.000000e+00 0.000000e+00
2.437500e-01 0.000000e+00 0.000000e+00
2.062500e-01 0.000000e+00 0.000000e+00
2.062500e-01 0.000000e+00 0.000000e+00
1.687500e-01 0.000000e+00 0.000000e+00
1.687500e-01 0.000000e+00 0.000000e+00
2.062500e-01 0.000000e+00 0.000000e+00
2.062500e-01 0.000000e+00 0.000000e+00
1.687500e-01 0.000000e+00 0.000000e+00
1.687500e-01 0.000000e+00 0.000000e+00
2.062500e-01 0.000000e+00 0.000000e+00
2.062500e-01 0.000000e+00 0.000000e+00
1.687500e-01 0.000000e+00 0.000000e+00
1.687500e-01 0.000000e+00 0.000000e+00
2.062500e-01 0.000000e+00 0.000000e+00
2.812500e-01 0.000000e+00 0.000000e+00
2.812500e-01 0.000000e+00 0.000000e+00
2.437500e-01 0.000000e+00 0.000000e+00
2.437500e-01 0.000000e+00 0.000000e+00
2.812500e-01 0.000000e+00 0.000000e+00
2.812500e-01 0.000000e+00 0.000000e+00
2.437500e-01 0.000000e+00 0.000000e+00
2.437500e-01 0.000000e+00 0.000000e+00
2.812500e-01 0.000000e+00 0.000000e+00
2.812500e-01 0.000000e+00 0.000000e+00
2.437500e-01 0.000000e+00 0.000000e+00
2.437500e-01 0.000000e+00 0.000000e+00
2.062500e-01 0.000000e+00 0.000000e+00
1.687500e-01 0.000000e+00 0.000000e+00
2.062500e-01 0.000000e+00 0.000000e+00
1.687500e-01 0.000000e+00 0.000000e+00
2.062500e-01 0.000000e+00 0.000000e+00
1.687500e-01 0.000000e+00 0.000000e+00
2.812500e-01 0.000000e+00 0.000000e+00
2.812500e-01 0.000000e+00 0.000000e+00
2.437500e-01 0.000000e+00 0.000000e+00
2.437500e-01 0.000000e+00 0.000000e+00
2.812500e-01 0.000000e+00 0.000000e+00
2.812500e-01 0.000000e+00 0.000000e+00
2.437500e-01 0.000000e+00 0.000000e+00
2.437500e-01 0.000000e+00 0.000000e+00
2.812500e-01 0.000000e+00 0.000000e+00
2.437500e-01 0.000000e+00 0.000000e+00
5.625000e-02 0.000000e+00 0.000000e+00
5.625000e-02 0.000000e+00 0.000000e+00
1.875000e-02 0.000000e+00 0.000000e+00
1.875000e-02 0.000000e+00 0.000000e+00
5.625000e-02 0.000000e+00 0.000000e+00
5.625000e-02 0.000000e+00 0.000000e+00
1.875000e-02 0.000000e+00 0.000000e+00
1.875000e-02 0.000000e+00 0.000000e+00
1.312500e-01 0.000000e+00 0.000000e+00
1.312500e-01 0.000000e+00 0.000000e+00
9.375000e-02 0.000000e+00 0.000000e+00
9.375000e-02 0.000000e+00 0.000000e+00
1.312500e-01 0.000000e+00 0.000000e+00
1.312500e-01 0.000000e+00 0.000000e+00
9.375000e-02 0.000000e+00 0.000000e+00
9.375000e-02 0.000000e+00 0.000000e+00
5.625000e-02 0.000000e+00 0.000000e+00
5.625000e-02 0.000000e+00 0.000000e+00
1.875000e-02 0.000000e+00 0.000000e+00
1.875000e-02 0.000000e+00 0.000000e+00
5.625000e-02 0.000000e+00 0.000000e+00
5.625000e-02 0.000000e+00 0.000000e+00
1.875000e-02 0.000000e+00 0.000000e+00
1.875000e-02 0.000000e+00 0.000000e+00
5.625000e-02 0.000000e+00 0.000000e+00
1.875000e-02 0.000000e+00 0.000000e+00
1.312500e-01 0.000000e+00 0.000000e+00
9.375000e-02 0.000000e+00 0.000000e+00
9.375000e-02 0.000000e+00 0.000000e+00
1.312500e-01 0.000000e+00 0.000000e+00
9.375000e-02 0.000000e+00 0.000000e+00
9.375000e-02 0.000000e+00 0.000000e+00
9.375000e-02 0.000000e+00 0.000000e+00
5.625000e-02 0.000000e+00 0.000000e+00
1.875000e-02 0.000000e+00 0.000000e+00
5.625000e-02 0.000000e+00 0.000000e+00
1.875000e-02 0.000000e+00 0.000000e+00
5.625000e-02 0.000000e+00 0.000000e+00
1.875000e-02 0.000000e+00 0.000000e+00
9.375000e-02 0.000000e+00 0.000000e+00
9.375000e-02 0.000000e+00 0.000000e+00
9.375000e-02 0.000000e+00 0.000000e+00
5.625000e-02 0.000000e+00 0.000000e+00
5.625000e-02 0.000000e+00 0.000000e+00
1.875000e-02 0.000000e+00 0.000000e+00
1.875000e-02 0.000000e+00 0.000000e+00
5.625000e-02 0.000000e+00 0.000000e+00
5.625000e-02 0.000000e+00 0.000000e+00
1.875000e-02 0.000000e+00 0.000000e+00
1.875000e-02 0.000000e+00 0.000000e+00
5.625000e-02 0.000000e+00 0.000000e+00
5.625000e-02 0.000000e+00 0.000000e+00
1.875000e-02 0.000000e+00 0.000000e+00
1.875000e-02 0.000000e+00 0.000000e+00
1.312500e-01 0.000000e+00 0.000000e+00
1.312500e-01 0.000000e+00 0.000000e+00
9.375000e-02 0.000000e+00 0.000000e+00
9.375000e-02 0.000000e+00 0.000000e+00
1.312500e-01 0.000000e+00 0.000000e+00
1.312500e-01 0.000000e+00 0.000000e+00
9.375000e-02 0.000000e+00 0.000000e+00
9.375000e-02 0.000000e+00 0.000000e+00
1.312500e-01 0.000000e+00 0.000000e+00
1.312500e-01 0.000000e+00 0.000000e+00
9.375000e-02 0.000000e+00 0.000000e+00
9.375000e-02 0.000000e+00 0.000000e+00
1.687500e-01 0.000000e+00 0.000000e+00
1.687500e-01 0.000000e+00 0.000000e+00
1.687500e-01 0.000000e+00 0.000000e+00
1.687500e-01 0.000000e+00 0.000000e+00
5.625000e-02 0.000000e+00 0.000000e+00
1.875000e-02 0.000000e+00 0.000000e+00
5.625000e-02 0.000000e+00 0.000000e+00
1.875000e-02 0.000000e+00 0.000000e+00
5.625000e-02 0.000000e+00 0.000000e+00
1.875000e-02 0.000000e+00 0.000000e+00
1.312500e-01 0.000000e+00 0.000000e+00
9.375000e-02 0.000000e+00 0.000000e+00
1.312500e-01 0.000000e+00 0.000000e+00
9.375000e-02 0.000000e+00 0.000000e+00
1.312500e-01 0.000000e+00 0.000000e+00
9.375000e-02 0.000000e+00 0.000000e+00
1.687500e-01 0.000000e+00 0.000000e+00
1.687500e-01 0.000000e+00 0.000000e+00
1.687500e-01 0.000000e+00 0.000000e+00
5.625000e-02 0.000000e+00 0.000000e+00
5.625000e-02 0.000000e+00 0.000000e+00
1.875000e-02 0.000000e+00 0.000000e+00
1.875000e-02 0.000000e+00 0.000000e+00
5.625000e-02 0.000000e+00 0.000000e+00
5.625000e-02 0.000000e+00 0.000000e+00
1.875000e-02 0.000000e+00 0.000000e+00
1.875000e-02 0.000000e+00 0.000000e+00
5.625000e-02 0.000000e+00 0.000000e+00
5.625000e-02 0.000000e+00 0.000000e+00
1.875000e-02 0.000000e+00 0.000000e+00
1.875000e-02 0.000000e+00 0.000000e+00
1.312500e-01 0.000000e+00 0.000000e+00
1.312500e-01 0.000000e+00 0.000000e+00
9.375000e-02 0.000000e+00 0.000000e+00
9.375000e-02 0.000000e+00 0.000000e+00
1.312500e-01 0.000000e+00 0.000000e+00
1.312500e-01 0.000000e+00 0.000000e+00
9.375000e-02 0.000000e+00 0.000000e+00
9.375000e-02 0.000000e+00 0.000000e+00
1.312500e-01 0.000000e+00 0.000000e+00
1.312500e-01 0.000000e+00 0.000000e+00
9.375000e-02 0.000000e+00 0.000000e+00
9.375000e-02 0.000000e+00 0.000000e+00
1.687500e-01 0.000000e+00 0.000000e+00
1.687500e-01 0.000000e+00 0.000000e+00
1.687500e-01 0.000000e+00 0.000000e+00
1.687500e-01 0.000000e+00 0.000000e+00
1.687500e-01 0.000000e+00 0.000000e+00
1.687500e-01 0.000000e+00 0.000000e+00
5.625000e-02 0.000000e+00 0.000000e+00
1.875000e-02 0.000000e+00 0.000000e+00
5.625000e-02 0.000000e+00 0.000000e+00
1.875000e-02 0.000000e+00 0.000000e+00
5.625000e-02 0.000000e+00 0.000000e+00
1.875000e-02 0.000000e+00 0.000000e+00
1.312500e-01 0.000000e+00 0.000000e+00
9.375000e-02 0.000000e+00 0.000000e+00
1.312500e-01 0.000000e+00 0.000000e+00
9.375000e-02 0.000000e+00 0.000000e+00
1.312500e-01 0.000000e+00 0.000000e+00
9.375000e-02 0.000000e+00 0.000000e+00
1.687500e-01 0.000000e+00 0.000000e+00
1.687500e-01 0.000000e+00 0.000000e+00
2.062500e-01 0.000000e+00 0.000000e+00
2.062500e-01 0.000000e+00 0.000000e+00
2.062500e-01 0.000000e+00 0.000000e+00
2.812500e-01 0.000000e+00 0.000000e+00
2.812500e-01 0.000000e+00 0.000000e+00
2.437500e-01 0.000000e+00 0.000000e+00
2.437500e-01 0.000000e+00 0.000000e+00
2.812500e-01 0.000000e+00 0.000000e+00
2.812500e-01 0.000000e+00 0.000000e+00
2.437500e-01 0.000000e+00 0.000000e+00
2.437500e-01 0.000000e+00 0.000000e+00
2.812500e-01 0.000000e+00 0.000000e+00
2.437500e-01 0.000000e+00 0.000000e+00
2.812500e-01 0.000000e+00 0.000000e+00
2.437500e-01 0.000000e+00 0.000000e+00
2.812500e-01 0.000000e+00 0.000000e+00
2.437500e-01 0.000000e+00 0.000000e+00
2.062500e-01 0.000000e+00 0.000000e+00
2.062500e-01 0.000000e+00 0.000000e+00
2.062500e-01 0.000000e+00 0.000000e+00
2.062500e-01 0.000000e+00 0.000000e+00
2.062500e-01 0.000000e+00 0.000000e+00
2.062500e-01 0.000000e+00 0.000000e+00
2.812500e-01 0.000000e+00 0.000000e+00
2.812500e-01 0.000000e+00 0.000000e+00
2.437500e-01 0.000000e+00 0.000000e+00
2.437500e-01 0.000000e+00 0.000000e+00
2.812500e-01 0.000000e+00 0.000000e+00
2.812500e-01 0.000000e+00 0.000000e+00
2.437500e-01 0.000000e+00 0.000000e+00
2.437500e-01 0.000000e+00 0.000000e+00
2.812500e-01 0.000000e+00 0.000000e+00
2.812500e-01 0.000000e+00 0.000000e+00
2.437500e-01 0.000000e+00 0.000000e+00
2.437500e-01 0.000000e+00 0.000000e+00
2.812500e-01 0.000000e+00 0.000000e+00
2.812500e-01 0.000000e+00 0.000000e+00
2.437500e-01 0.000000e+00 0.000000e+00
2.437500e-01 0.000000e+00 0.000000e+00
2.812500e-01 0.000000e+00 0.000000e+00
2.812500e-01 0.000000e+00 0.000000e+00
2.437500e-01 0.000000e+00 0.000000e+00
2.437500e-01 0.000000e+00 0.000000e+00
5.625000e-02 0.000000e+00 0.000000e+00
1.875000e-02 0.000000e+00 0.000000e+00
5.625000e-02 0.000000e+00 0.000000e+00
1.875000e-02 0.000000e+00 0.000000e+00
5.625000e-02 0.000000e+00 0.000000e+00
1.875000e-02 0.000000e+00 0.000000e+00
1.312500e-01 0.000000e+00 0.000000e+00
9.375000e-02 0.000000e+00 0.000000e+00
1.312500e-01 0.000000e+00 0.000000e+00
9.375000e-02 0.000000e+00 0.000000e+00
1.312500e-01 0.000000e+00 0.000000e+00
9.375000e-02 0.000000e+00 0.000000e+00
1.687500e-01 0.000000e+00 0.000000e+00
1.687500e-01 0.000000e+00 0.000000e+00
5.625000e-02 0.000000e+00 0.000000e+00
5.625000e-02 0.000000e+00 0.000000e+00
1.875000e-02 0.000000e+00 0.000000e+00
1.875000e-02 0.000000e+00 0.000000e+00
5.625000e-02 0.000000e+00 0.000000e+00
5.625000e-02 0.000000e+00 0.000000e+00
1.875000e-02 0.000000e+00 0.000000e+00
1.875000e-02 0.000000e+00 0.000000e+00
5.625000e-02 0.000000e+00 0.000000e+00
5.625000e-02 0.000000e+00 0.000000e+00
1.875000e-02 0.000000e+00 0.000000e+00
1.875000e-02 0.000000e+00 0.000000e+00
1.312500e-01 0.000000e+00 0.000000e+00
1.312500e-01 0.000000e+00 0.000000e+00
9.375000e-02 0.000000e+00 0.000000e+00
9.375000e-02 0.000000e+00 0.000000e+00
1.312500e-01 0.000000e+00 0.000000e+00
1.312500e-01 0.000000e+00 0.000000e+00
9.375000e-02 0.000000e+00 0.000000e+00
9.375000e-02 0.000000e+00 0.000000e+00
1.312500e-01 0.000000e+00 0.000000e+00
1.312500e-01 0.000000e+00 0.000000e+00
9.375000e-02 0.000000e+00 0.000000e+00
9.375000e-02 0.000000e+00 0.000000e+00
1.687500e-01 0.000000e+00 0.000000e+00
1.687500e-01 0.000000e+00 0.000000e+00
1.687500e-01 0.000000e+00 0.000000e+00
1.687500e-01 0.000000e+00 0.000000e+00
1.687500e-01 0.000000e+00 0.000000e+00