# vtk DataFile Version 2.0
Simplicial Mesh Example
ASCII
DATASET UNSTRUCTURED_GRID
POINTS 27 double
0.000000e+00 0.000000e+00 1.000000e+01
0.000000e+00 0.000000e+00 5.000000e+00
0.000000e+00 5.000000e+00 5.000000e+00
0.000000e+00 5.000000e+00 1.000000e+01
5.000000e+00 0.000000e+00 1.000000e+01
5.000000e+00 0.000000e+00 5.000000e+00
5.000000e+00 5.000000e+00 5.000000e+00
5.000000e+00 5.000000e+00 1.000000e+01
0.000000e+00 0.000000e+00 0.000000e+00
0.000000e+00 5.000000e+00 0.000000e+00
5.000000e+00 0.000000e+00 0.000000e+00
5.000000e+00 5.000000e+00 0.000000e+00
0.000000e+00 1.000000e+01 5.000000e+00
0.000000e+00 1.000000e+01 1.000000e+01
5.000000e+00 1.000000e+01 5.000000e+00
5.000000e+00 1.000000e+01 1.000000e+01
0.000000e+00 1.000000e+01 0.000000e+00
5.000000e+00 1.000000e+01 0.000000e+00
1.000000e+01 0.000000e+00 1.000000e+01
1.000000e+01 0.000000e+00 5.000000e+00
1.000000e+01 5.000000e+00 5.000000e+00
1.000000e+01 5.000000e+00 1.000000e+01
1.000000e+01 0.000000e+00 0.000000e+00
1.000000e+01 5.000000e+00 0.000000e+00
1.000000e+01 1.000000e+01 5.000000e+00
1.000000e+01 1.000000e+01 1.000000e+01
1.000000e+01 1.000000e+01 0.000000e+00
CELLS 8 72
8  0 1 2 3 4 5 6 7
8  1 8 9 2 5 10 11 6
8  3 2 12 13 7 6 14 15
8  2 9 16 12 6 11 17 14
8  4 5 6 7 18 19 20 21
8  5 10 11 6 19 22 23 20
8  7 6 14 15 21 20 24 25
8  6 11 17 14 20 23 26 24
CELL_TYPES 8
12
12
12
12
12
12
12
12
CELL_DATA 8
SCALARS Density double 1
LOOKUP_TABLE default
1.000000e+00
1.000000e+00
1.000000e+00
1.000000e+00
1.000000e+00
1.000000e+00
1.000000e+00
1.000000e+00
VECTORS Momentum double
1.000000e+00 1.000000e+00 1.000000e+00
1.000000e+00 1.000000e+00 1.000000e+00
1.000000e+00 1.000000e+00 1.000000e+00
1.000000e+00 1.000000e+00 1.000000e+00
1.000000e+00 1.000000e+00 1.000000e+00
1.000000e+00 1.000000e+00 1.000000e+00
1.000000e+00 1.000000e+00 1.000000e+00
1.000000e+00 1.000000e+00 1.000000e+00
SCALARS Energy double 1
LOOKUP_TABLE default
1.000000e+00
1.000000e+00
1.000000e+00
1.000000e+00
1.000000e+00
1.000000e+00
1.000000e+00
1.000000e+00
